TITLE=" Box                                                                     /                                                                         "
VARIABLES="X",        "Y",      "Vx   ",      "Vy   ",      "Nden ",      "Rho  ",      "Ttrn ",      "Trot ",      "Tvib ",      "Press",      "Ma   ",      "Lambd",      "Relac",      "Coll ",      "frac1",      "Ttrn1",      "Trot1",      "Tvib1",      "frac2",      "Ttrn2",      "Trot2",      "Tvib2"
ZONE T="DSMC,BG", I=  200, J=   50, F=POINT
 -0.395000E-02  0.500000E-04  0.804264E+03  0.245619E+02  0.127842E+25  0.594467E-01  0.974726E+02  0.825518E+02  0.232970E+03  0.172031E+04  0.399759E+01  0.681944E-06  0.379193E+09  0.242384E+33  0.000000E+00  0.000000E+00  0.000000E+00  0.000000E+00  0.100000E+01  0.974726E+02  0.825518E+02  0.232970E+03
 -0.385000E-02  0.500000E-04  0.743255E+03  0.661149E+02  0.138390E+25  0.643513E-01  0.142159E+03  0.114639E+03  0.245608E+03  0.271599E+04  0.306973E+01  0.692296E-06  0.471819E+09  0.326475E+33  0.000000E+00  0.000000E+00  0.000000E+00  0.000000E+00  0.100000E+01  0.142159E+03  0.114639E+03  0.245608E+03
 -0.375000E-02  0.500000E-04  0.714026E+03  0.886784E+02  0.138684E+25  0.644881E-01  0.159344E+03  0.130055E+03  0.250239E+03  0.305077E+04  0.279582E+01  0.710821E-06  0.528257E+09  0.366304E+33  0.000000E+00  0.000000E+00  0.000000E+00  0.000000E+00  0.100000E+01  0.159344E+03  0.130055E+03  0.250239E+03
 -0.365000E-02  0.500000E-04  0.676329E+03  0.743043E+02  0.112939E+25  0.525165E-01  0.184774E+03  0.148190E+03  0.256934E+03  0.288093E+04  0.245517E+01  0.905775E-06  0.465429E+09  0.262824E+33  0.000000E+00  0.000000E+00  0.000000E+00  0.000000E+00  0.100000E+01  0.184774E+03  0.148190E+03  0.256934E+03
 -0.355000E-02  0.500000E-04  0.629290E+03  0.541678E+02  0.870563E+24  0.404812E-01  0.213488E+03  0.171283E+03  0.264112E+03  0.256580E+04  0.212034E+01  0.121828E-05  0.361133E+09  0.157195E+33  0.000000E+00  0.000000E+00  0.000000E+00  0.000000E+00  0.100000E+01  0.213488E+03  0.171283E+03  0.264112E+03
 -0.345000E-02  0.500000E-04  0.581876E+03  0.393523E+02  0.714996E+24  0.332473E-01  0.236233E+03  0.191723E+03  0.269857E+03  0.233181E+04  0.186119E+01  0.152137E-05  0.293914E+09  0.105074E+33  0.000000E+00  0.000000E+00  0.000000E+00  0.000000E+00  0.100000E+01  0.236233E+03  0.191723E+03  0.269857E+03
 -0.335000E-02  0.500000E-04  0.538019E+03  0.311042E+02  0.616016E+24  0.286447E-01  0.254972E+03  0.207645E+03  0.274492E+03  0.216837E+04  0.165545E+01  0.179984E-05  0.253140E+09  0.779690E+32  0.000000E+00  0.000000E+00  0.000000E+00  0.000000E+00  0.100000E+01  0.254972E+03  0.207645E+03  0.274492E+03
 -0.325000E-02  0.500000E-04  0.500716E+03  0.237039E+02  0.542672E+24  0.252343E-01  0.266927E+03  0.222682E+03  0.277549E+03  0.199976E+04  0.150495E+01  0.206663E-05  0.222236E+09  0.603007E+32  0.000000E+00  0.000000E+00  0.000000E+00  0.000000E+00  0.100000E+01  0.266927E+03  0.222682E+03  0.277549E+03
 -0.315000E-02  0.500000E-04  0.465710E+03  0.177988E+02  0.501338E+24  0.233122E-01  0.276206E+03  0.233158E+03  0.279737E+03  0.191167E+04  0.137549E+01  0.225621E-05  0.204272E+09  0.512047E+32  0.000000E+00  0.000000E+00  0.000000E+00  0.000000E+00  0.100000E+01  0.276206E+03  0.233158E+03  0.279737E+03
 -0.305000E-02  0.500000E-04  0.438845E+03  0.150278E+02  0.468326E+24  0.217772E-01  0.284776E+03  0.243758E+03  0.281528E+03  0.184120E+04  0.127630E+01  0.243377E-05  0.190364E+09  0.445763E+32  0.000000E+00  0.000000E+00  0.000000E+00  0.000000E+00  0.100000E+01  0.284776E+03  0.243758E+03  0.281528E+03
 -0.295000E-02  0.500000E-04  0.415146E+03  0.151184E+02  0.441739E+24  0.205408E-01  0.289048E+03  0.251414E+03  0.283798E+03  0.176273E+04  0.119851E+01  0.258988E-05  0.179539E+09  0.396548E+32  0.000000E+00  0.000000E+00  0.000000E+00  0.000000E+00  0.100000E+01  0.289048E+03  0.251414E+03  0.283798E+03
 -0.285000E-02  0.500000E-04  0.392873E+03  0.102876E+02  0.417988E+24  0.194365E-01  0.295862E+03  0.260582E+03  0.285071E+03  0.170727E+04  0.112072E+01  0.275303E-05  0.170128E+09  0.355557E+32  0.000000E+00  0.000000E+00  0.000000E+00  0.000000E+00  0.100000E+01  0.295862E+03  0.260582E+03  0.285071E+03
 -0.275000E-02  0.500000E-04  0.371852E+03  0.105133E+02  0.398836E+24  0.185459E-01  0.298495E+03  0.265513E+03  0.286497E+03  0.164354E+04  0.105613E+01  0.289163E-05  0.162299E+09  0.323653E+32  0.000000E+00  0.000000E+00  0.000000E+00  0.000000E+00  0.100000E+01  0.298495E+03  0.265513E+03  0.286497E+03
 -0.265000E-02  0.500000E-04  0.354209E+03  0.811351E+01  0.383853E+24  0.178492E-01  0.300827E+03  0.269386E+03  0.287428E+03  0.159416E+04  0.100197E+01  0.301035E-05  0.156724E+09  0.300795E+32  0.000000E+00  0.000000E+00  0.000000E+00  0.000000E+00  0.100000E+01  0.300827E+03  0.269386E+03  0.287428E+03
 -0.255000E-02  0.500000E-04  0.343587E+03  0.628070E+01  0.369430E+24  0.171785E-01  0.302404E+03  0.274493E+03  0.287808E+03  0.154230E+04  0.969295E+00  0.313197E-05  0.151329E+09  0.279526E+32  0.000000E+00  0.000000E+00  0.000000E+00  0.000000E+00  0.100000E+01  0.302404E+03  0.274493E+03  0.287808E+03
 -0.245000E-02  0.500000E-04  0.330662E+03  0.903590E+01  0.359473E+24  0.167155E-01  0.304756E+03  0.278048E+03  0.287833E+03  0.151240E+04  0.929418E+00  0.322496E-05  0.148156E+09  0.266291E+32  0.000000E+00  0.000000E+00  0.000000E+00  0.000000E+00  0.100000E+01  0.304756E+03  0.278048E+03  0.287833E+03
 -0.235000E-02  0.500000E-04  0.320403E+03  0.552222E+01  0.344555E+24  0.160218E-01  0.303398E+03  0.279289E+03  0.289223E+03  0.144318E+04  0.902393E+00  0.336084E-05  0.141310E+09  0.243444E+32  0.000000E+00  0.000000E+00  0.000000E+00  0.000000E+00  0.100000E+01  0.303398E+03  0.279289E+03  0.289223E+03
 -0.225000E-02  0.500000E-04  0.310187E+03  0.209324E+01  0.340796E+24  0.158470E-01  0.303000E+03  0.277572E+03  0.289794E+03  0.142556E+04  0.874083E+00  0.339679E-05  0.139942E+09  0.238458E+32  0.000000E+00  0.000000E+00  0.000000E+00  0.000000E+00  0.100000E+01  0.303000E+03  0.277572E+03  0.289794E+03
 -0.215000E-02  0.500000E-04  0.295634E+03  0.473324E+01  0.342131E+24  0.159091E-01  0.306968E+03  0.282200E+03  0.290634E+03  0.144989E+04  0.827758E+00  0.339456E-05  0.140875E+09  0.240989E+32  0.000000E+00  0.000000E+00  0.000000E+00  0.000000E+00  0.100000E+01  0.306968E+03  0.282200E+03  0.290634E+03
 -0.205000E-02  0.500000E-04  0.287604E+03  0.552655E+01  0.332795E+24  0.154750E-01  0.306999E+03  0.285936E+03  0.291150E+03  0.141047E+04  0.805280E+00  0.348987E-05  0.136609E+09  0.227314E+32  0.000000E+00  0.000000E+00  0.000000E+00  0.000000E+00  0.100000E+01  0.306999E+03  0.285936E+03  0.291150E+03
 -0.195000E-02  0.500000E-04  0.278486E+03  0.444050E+01  0.327647E+24  0.152356E-01  0.306193E+03  0.285620E+03  0.291435E+03  0.138500E+04  0.780731E+00  0.354238E-05  0.134250E+09  0.219933E+32  0.000000E+00  0.000000E+00  0.000000E+00  0.000000E+00  0.100000E+01  0.306193E+03  0.285620E+03  0.291435E+03
 -0.185000E-02  0.500000E-04  0.270144E+03  0.216746E+01  0.323589E+24  0.150469E-01  0.307450E+03  0.287030E+03  0.291254E+03  0.137347E+04  0.755723E+00  0.359048E-05  0.133213E+09  0.215531E+32  0.000000E+00  0.000000E+00  0.000000E+00  0.000000E+00  0.100000E+01  0.307450E+03  0.287030E+03  0.291254E+03
 -0.175000E-02  0.500000E-04  0.271476E+03  0.281245E+01  0.311233E+24  0.144724E-01  0.306966E+03  0.286027E+03  0.291366E+03  0.131894E+04  0.760064E+00  0.373155E-05  0.127387E+09  0.198236E+32  0.000000E+00  0.000000E+00  0.000000E+00  0.000000E+00  0.100000E+01  0.306966E+03  0.286027E+03  0.291366E+03
 -0.165000E-02  0.500000E-04  0.260280E+03  0.120220E+00  0.312194E+24  0.145170E-01  0.306993E+03  0.286844E+03  0.291441E+03  0.132313E+04  0.728647E+00  0.372015E-05  0.128661E+09  0.200836E+32  0.000000E+00  0.000000E+00  0.000000E+00  0.000000E+00  0.100000E+01  0.306993E+03  0.286844E+03  0.291441E+03
 -0.155000E-02  0.500000E-04  0.253718E+03  0.608039E+01  0.307287E+24  0.142888E-01  0.309244E+03  0.293940E+03  0.291639E+03  0.131188E+04  0.707889E+00  0.378647E-05  0.126380E+09  0.194175E+32  0.000000E+00  0.000000E+00  0.000000E+00  0.000000E+00  0.100000E+01  0.309244E+03  0.293940E+03  0.291639E+03
 -0.145000E-02  0.500000E-04  0.240298E+03  0.445734E+01  0.307274E+24  0.142882E-01  0.311144E+03  0.291728E+03  0.291093E+03  0.131988E+04  0.668320E+00  0.379243E-05  0.126953E+09  0.195047E+32  0.000000E+00  0.000000E+00  0.000000E+00  0.000000E+00  0.100000E+01  0.311144E+03  0.291728E+03  0.291093E+03
 -0.135000E-02  0.500000E-04  0.223935E+03  0.686996E+01  0.311217E+24  0.144716E-01  0.309408E+03  0.294140E+03  0.291418E+03  0.132936E+04  0.624742E+00  0.373915E-05  0.127984E+09  0.199154E+32  0.000000E+00  0.000000E+00  0.000000E+00  0.000000E+00  0.100000E+01  0.309408E+03  0.294140E+03  0.291418E+03
 -0.125000E-02  0.500000E-04  0.214545E+03  0.364199E+01  0.309068E+24  0.143716E-01  0.311069E+03  0.296139E+03  0.292780E+03  0.132727E+04  0.596751E+00  0.377019E-05  0.127063E+09  0.196356E+32  0.000000E+00  0.000000E+00  0.000000E+00  0.000000E+00  0.100000E+01  0.311069E+03  0.296139E+03  0.292780E+03
 -0.115000E-02  0.500000E-04  0.205431E+03  0.361138E+01  0.306499E+24  0.142522E-01  0.314578E+03  0.302850E+03  0.293746E+03  0.133108E+04  0.568213E+00  0.381247E-05  0.127330E+09  0.195132E+32  0.000000E+00  0.000000E+00  0.000000E+00  0.000000E+00  0.100000E+01  0.314578E+03  0.302849E+03  0.293746E+03
 -0.105000E-02  0.500000E-04  0.197324E+03  0.124067E+01  0.306631E+24  0.142583E-01  0.310199E+03  0.297752E+03  0.292867E+03  0.131313E+04  0.549553E+00  0.379749E-05  0.126802E+09  0.194407E+32  0.174639E-02  0.334167E+03  0.312619E+03  0.292165E+03  0.998254E+00  0.310158E+03  0.297726E+03  0.292869E+03
 -0.950000E-03  0.500000E-04  0.184481E+03  0.431407E+01  0.313380E+24  0.145722E-01  0.315124E+03  0.302624E+03  0.293528E+03  0.136333E+04  0.509881E+00  0.373037E-05  0.130336E+09  0.204224E+32  0.174943E-01  0.321720E+03  0.316368E+03  0.300334E+03  0.982506E+00  0.315007E+03  0.302379E+03  0.293373E+03
 -0.850000E-03  0.500000E-04  0.170008E+03  0.572053E+01  0.316623E+24  0.147230E-01  0.314022E+03  0.304622E+03  0.294418E+03  0.137263E+04  0.470844E+00  0.368892E-05  0.131418E+09  0.208050E+32  0.516026E-01  0.308689E+03  0.292866E+03  0.300714E+03  0.948397E+00  0.314312E+03  0.305262E+03  0.293984E+03
 -0.750000E-03  0.500000E-04  0.163728E+03  0.693955E+01  0.311646E+24  0.144916E-01  0.311669E+03  0.298328E+03  0.294398E+03  0.134093E+04  0.455310E+00  0.374079E-05  0.129171E+09  0.201278E+32  0.953703E-01  0.307676E+03  0.309994E+03  0.300578E+03  0.904630E+00  0.312091E+03  0.297099E+03  0.293565E+03
 -0.650000E-03  0.500000E-04  0.154581E+03  0.378545E+01  0.316987E+24  0.147399E-01  0.308965E+03  0.299503E+03  0.295410E+03  0.135207E+04  0.431493E+00  0.366977E-05  0.132014E+09  0.209233E+32  0.143167E+00  0.306818E+03  0.301116E+03  0.301082E+03  0.856833E+00  0.309323E+03  0.299233E+03  0.294205E+03
 -0.550000E-03  0.500000E-04  0.150838E+03  0.177523E+01  0.316878E+24  0.147348E-01  0.311782E+03  0.304588E+03  0.294723E+03  0.136393E+04  0.419041E+00  0.367936E-05  0.132024E+09  0.209177E+32  0.176074E+00  0.316837E+03  0.308809E+03  0.300117E+03  0.823926E+00  0.310702E+03  0.303686E+03  0.293256E+03
 -0.450000E-03  0.500000E-04  0.142873E+03  0.423081E+01  0.313742E+24  0.145890E-01  0.310731E+03  0.303421E+03  0.294727E+03  0.134588E+04  0.397731E+00  0.371301E-05  0.130762E+09  0.205128E+32  0.234797E+00  0.308510E+03  0.303670E+03  0.299653E+03  0.765203E+00  0.311413E+03  0.303345E+03  0.292802E+03
 -0.350000E-03  0.500000E-04  0.140046E+03  0.107610E+01  0.314383E+24  0.146188E-01  0.309473E+03  0.300712E+03  0.295676E+03  0.134317E+04  0.390492E+00  0.370169E-05  0.130531E+09  0.205183E+32  0.280025E+00  0.308641E+03  0.303435E+03  0.300539E+03  0.719975E+00  0.309797E+03  0.299654E+03  0.293231E+03
 -0.250000E-03  0.500000E-04  0.137421E+03  0.102360E+01  0.313316E+24  0.145692E-01  0.313087E+03  0.307466E+03  0.296258E+03  0.135424E+04  0.380954E+00  0.372509E-05  0.130764E+09  0.204852E+32  0.299884E+00  0.311411E+03  0.309006E+03  0.301104E+03  0.700116E+00  0.313805E+03  0.306806E+03  0.293555E+03
 -0.150000E-03  0.500000E-04  0.132205E+03  0.539050E+01  0.314701E+24  0.146336E-01  0.311246E+03  0.303749E+03  0.296366E+03  0.135223E+04  0.367873E+00  0.370323E-05  0.130966E+09  0.206076E+32  0.339504E+00  0.310916E+03  0.303787E+03  0.300251E+03  0.660496E+00  0.311416E+03  0.303729E+03  0.293869E+03
 -0.499999E-04  0.500000E-04  0.127797E+03  0.355321E+01  0.311735E+24  0.144957E-01  0.309616E+03  0.301512E+03  0.296746E+03  0.133247E+04  0.356383E+00  0.373356E-05  0.128978E+09  0.201035E+32  0.346979E+00  0.309978E+03  0.302739E+03  0.300677E+03  0.653021E+00  0.309424E+03  0.300860E+03  0.294119E+03
  0.499999E-04  0.500000E-04  0.124374E+03  0.133138E+01  0.315398E+24  0.146660E-01  0.307567E+03  0.302392E+03  0.296558E+03  0.133921E+04  0.347878E+00  0.368406E-05  0.130875E+09  0.206390E+32  0.386249E+00  0.309547E+03  0.306564E+03  0.301383E+03  0.613751E+00  0.306320E+03  0.299767E+03  0.292395E+03
  0.150000E-03  0.500000E-04  0.126357E+03  0.452916E+01  0.312181E+24  0.145164E-01  0.305644E+03  0.299348E+03  0.295939E+03  0.131726E+04  0.354740E+00  0.371621E-05  0.128589E+09  0.200715E+32  0.406351E+00  0.305812E+03  0.303432E+03  0.299759E+03  0.593649E+00  0.305529E+03  0.296552E+03  0.292569E+03
  0.250000E-03  0.500000E-04  0.122753E+03 -0.255596E+01  0.316604E+24  0.147221E-01  0.301152E+03  0.296329E+03  0.295768E+03  0.131629E+04  0.347035E+00  0.365075E-05  0.129587E+09  0.205139E+32  0.416160E+00  0.301632E+03  0.296777E+03  0.299081E+03  0.583840E+00  0.300811E+03  0.296010E+03  0.292822E+03
  0.350000E-03  0.500000E-04  0.126653E+03  0.199546E+01  0.309409E+24  0.143875E-01  0.303460E+03  0.297455E+03  0.296185E+03  0.129624E+04  0.356664E+00  0.374278E-05  0.127955E+09  0.197952E+32  0.409037E+00  0.302131E+03  0.296000E+03  0.299386E+03  0.590963E+00  0.304381E+03  0.298462E+03  0.293454E+03
  0.450000E-03  0.500000E-04  0.125747E+03  0.351515E+01  0.306382E+24  0.142468E-01  0.304357E+03  0.300146E+03  0.296640E+03  0.128735E+04  0.353686E+00  0.378256E-05  0.126405E+09  0.193641E+32  0.428659E+00  0.303354E+03  0.296984E+03  0.300550E+03  0.571341E+00  0.305110E+03  0.302518E+03  0.292785E+03
  0.550000E-03  0.500000E-04  0.124235E+03  0.417857E+00  0.305986E+24  0.142283E-01  0.302490E+03  0.298552E+03  0.297292E+03  0.127779E+04  0.350375E+00  0.378163E-05  0.126371E+09  0.193339E+32  0.426629E+00  0.301757E+03  0.298031E+03  0.300583E+03  0.573371E+00  0.303035E+03  0.298940E+03  0.294235E+03
  0.650000E-03  0.500000E-04  0.125497E+03  0.393470E+01  0.297834E+24  0.138493E-01  0.303103E+03  0.298153E+03  0.296962E+03  0.124627E+04  0.353748E+00  0.388710E-05  0.122689E+09  0.182704E+32  0.444559E+00  0.302698E+03  0.298644E+03  0.300186E+03  0.555441E+00  0.303427E+03  0.297759E+03  0.293725E+03
  0.750000E-03  0.500000E-04  0.129299E+03  0.381800E+00  0.290298E+24  0.134989E-01  0.305982E+03  0.299814E+03  0.296843E+03  0.122628E+04  0.362569E+00  0.399745E-05  0.119828E+09  0.173929E+32  0.463184E+00  0.306516E+03  0.298556E+03  0.299870E+03  0.536816E+00  0.305520E+03  0.300899E+03  0.293587E+03
  0.850000E-03  0.500000E-04  0.135641E+03 -0.828448E+00  0.283561E+24  0.131856E-01  0.302156E+03  0.297275E+03  0.297020E+03  0.118284E+04  0.382757E+00  0.407957E-05  0.117561E+09  0.166679E+32  0.446776E+00  0.302895E+03  0.300458E+03  0.300340E+03  0.553224E+00  0.301560E+03  0.294705E+03  0.293627E+03
  0.950000E-03  0.500000E-04  0.137692E+03 -0.233630E+01  0.283228E+24  0.131701E-01  0.297447E+03  0.292814E+03  0.297290E+03  0.116304E+04  0.391659E+00  0.406835E-05  0.116205E+09  0.164562E+32  0.452649E+00  0.297907E+03  0.293554E+03  0.300699E+03  0.547351E+00  0.297066E+03  0.292203E+03  0.293685E+03
  0.105000E-02  0.500000E-04  0.144502E+03 -0.391441E+00  0.275548E+24  0.128130E-01  0.300465E+03  0.294254E+03  0.296938E+03  0.114298E+04  0.408903E+00  0.419232E-05  0.113550E+09  0.156442E+32  0.461447E+00  0.300710E+03  0.295209E+03  0.299857E+03  0.538553E+00  0.300254E+03  0.293435E+03  0.293849E+03
  0.115000E-02  0.500000E-04  0.140973E+03 -0.480318E+00  0.278219E+24  0.129372E-01  0.299600E+03  0.297125E+03  0.296842E+03  0.115074E+04  0.399494E+00  0.414906E-05  0.114346E+09  0.159066E+32  0.445368E+00  0.297486E+03  0.295800E+03  0.300148E+03  0.554632E+00  0.301298E+03  0.298189E+03  0.293487E+03
  0.125000E-02  0.500000E-04  0.140198E+03  0.340741E+00  0.273509E+24  0.127182E-01  0.298069E+03  0.295017E+03  0.296443E+03  0.112548E+04  0.398315E+00  0.421512E-05  0.112439E+09  0.153765E+32  0.424866E+00  0.297576E+03  0.294411E+03  0.299868E+03  0.575134E+00  0.298434E+03  0.295465E+03  0.293249E+03
  0.135000E-02  0.500000E-04  0.143820E+03  0.309465E+00  0.267910E+24  0.124578E-01  0.302722E+03  0.295973E+03  0.296497E+03  0.111965E+04  0.405451E+00  0.431991E-05  0.110906E+09  0.148564E+32  0.409395E+00  0.302635E+03  0.294291E+03  0.299386E+03  0.590605E+00  0.302783E+03  0.297138E+03  0.294084E+03
  0.145000E-02  0.500000E-04  0.144659E+03 -0.151183E+01  0.262087E+24  0.121871E-01  0.306486E+03  0.297655E+03  0.296634E+03  0.110894E+04  0.405327E+00  0.442955E-05  0.109401E+09  0.143363E+32  0.375457E+00  0.306020E+03  0.292488E+03  0.300059E+03  0.624543E+00  0.306767E+03  0.300761E+03  0.294097E+03
  0.155000E-02  0.500000E-04  0.142872E+03  0.351167E+01  0.261999E+24  0.121829E-01  0.308058E+03  0.299830E+03  0.296875E+03  0.111425E+04  0.399396E+00  0.443672E-05  0.109071E+09  0.142882E+32  0.363278E+00  0.307978E+03  0.302069E+03  0.299922E+03  0.636722E+00  0.308104E+03  0.298552E+03  0.294795E+03
  0.165000E-02  0.500000E-04  0.141372E+03 -0.157308E+01  0.260158E+24  0.120974E-01  0.306537E+03  0.301966E+03  0.296306E+03  0.110095E+04  0.396086E+00  0.446257E-05  0.106763E+09  0.138876E+32  0.344495E+00  0.305176E+03  0.301872E+03  0.299599E+03  0.655505E+00  0.307252E+03  0.302015E+03  0.294216E+03
  0.175000E-02  0.500000E-04  0.138369E+03  0.228569E+01  0.258508E+24  0.120206E-01  0.303556E+03  0.300437E+03  0.296042E+03  0.108333E+04  0.389599E+00  0.448010E-05  0.105829E+09  0.136789E+32  0.314262E+00  0.301600E+03  0.301008E+03  0.298579E+03  0.685738E+00  0.304453E+03  0.300176E+03  0.294710E+03
  0.185000E-02  0.500000E-04  0.138161E+03 -0.140264E+01  0.258813E+24  0.120348E-01  0.305734E+03  0.299512E+03  0.296336E+03  0.109239E+04  0.387593E+00  0.448283E-05  0.107392E+09  0.138972E+32  0.306152E+00  0.304364E+03  0.297882E+03  0.298927E+03  0.693848E+00  0.306339E+03  0.300231E+03  0.295025E+03
  0.195000E-02  0.500000E-04  0.134169E+03  0.349233E+01  0.257627E+24  0.119797E-01  0.304105E+03  0.299243E+03  0.296448E+03  0.108160E+04  0.377511E+00  0.449746E-05  0.106525E+09  0.137219E+32  0.283517E+00  0.304546E+03  0.297772E+03  0.300609E+03  0.716483E+00  0.303931E+03  0.299825E+03  0.294403E+03
  0.205000E-02  0.500000E-04  0.137101E+03  0.144995E+01  0.253280E+24  0.117775E-01  0.305832E+03  0.301735E+03  0.296744E+03  0.106938E+04  0.384561E+00  0.458112E-05  0.104356E+09  0.132156E+32  0.274587E+00  0.303823E+03  0.300768E+03  0.299659E+03  0.725413E+00  0.306593E+03  0.302101E+03  0.295466E+03
  0.215000E-02  0.500000E-04  0.137618E+03 -0.304738E+01  0.251540E+24  0.116966E-01  0.306845E+03  0.299058E+03  0.296240E+03  0.106555E+04  0.385446E+00  0.461663E-05  0.103794E+09  0.130542E+32  0.264651E+00  0.308788E+03  0.297101E+03  0.299335E+03  0.735349E+00  0.306146E+03  0.299762E+03  0.294941E+03
  0.225000E-02  0.500000E-04  0.140582E+03 -0.407759E+01  0.257038E+24  0.119523E-01  0.306558E+03  0.303410E+03  0.296285E+03  0.108783E+04  0.394000E+00  0.451682E-05  0.105797E+09  0.135970E+32  0.275234E+00  0.306459E+03  0.302977E+03  0.300118E+03  0.724766E+00  0.306596E+03  0.303575E+03  0.294515E+03
  0.235000E-02  0.500000E-04  0.138191E+03  0.412893E+01  0.253897E+24  0.118062E-01  0.305598E+03  0.301706E+03  0.296236E+03  0.107117E+04  0.387916E+00  0.456910E-05  0.104898E+09  0.133166E+32  0.266994E+00  0.301405E+03  0.296905E+03  0.300013E+03  0.733006E+00  0.307126E+03  0.303454E+03  0.294571E+03
  0.245000E-02  0.500000E-04  0.136339E+03  0.350671E+00  0.252007E+24  0.117183E-01  0.306801E+03  0.298593E+03  0.296390E+03  0.106738E+04  0.381797E+00  0.460792E-05  0.104240E+09  0.131346E+32  0.257086E+00  0.305726E+03  0.299099E+03  0.300381E+03  0.742914E+00  0.307173E+03  0.298418E+03  0.294706E+03
  0.255000E-02  0.500000E-04  0.135853E+03  0.146594E+01  0.247020E+24  0.114864E-01  0.310138E+03  0.305664E+03  0.297058E+03  0.105764E+04  0.378405E+00  0.471367E-05  0.103175E+09  0.127431E+32  0.244854E+00  0.309213E+03  0.311525E+03  0.300902E+03  0.755146E+00  0.310438E+03  0.303764E+03  0.295557E+03
  0.265000E-02  0.500000E-04  0.132360E+03  0.441427E+00  0.249463E+24  0.116000E-01  0.309070E+03  0.306937E+03  0.296523E+03  0.106442E+04  0.369292E+00  0.466349E-05  0.103337E+09  0.128894E+32  0.246404E+00  0.310302E+03  0.308978E+03  0.298970E+03  0.753596E+00  0.308667E+03  0.306269E+03  0.295624E+03
  0.275000E-02  0.500000E-04  0.132876E+03  0.222830E+00  0.249229E+24  0.115891E-01  0.305769E+03  0.300917E+03  0.297661E+03  0.105206E+04  0.372727E+00  0.465536E-05  0.102404E+09  0.127611E+32  0.243485E+00  0.304812E+03  0.301728E+03  0.301429E+03  0.756515E+00  0.306077E+03  0.300655E+03  0.296208E+03
  0.285000E-02  0.500000E-04  0.129020E+03  0.191135E+00  0.246333E+24  0.114545E-01  0.309816E+03  0.303835E+03  0.296566E+03  0.105360E+04  0.359539E+00  0.472560E-05  0.101636E+09  0.125182E+32  0.225035E+00  0.309152E+03  0.298031E+03  0.300350E+03  0.774965E+00  0.310009E+03  0.305521E+03  0.295254E+03
  0.295000E-02  0.500000E-04  0.129704E+03 -0.386959E+00  0.241743E+24  0.112411E-01  0.305516E+03  0.300350E+03  0.296686E+03  0.101962E+04  0.363982E+00  0.479851E-05  0.100789E+09  0.121826E+32  0.232069E+00  0.305141E+03  0.296974E+03  0.300584E+03  0.767931E+00  0.305629E+03  0.301370E+03  0.295268E+03
  0.305000E-02  0.500000E-04  0.126638E+03 -0.128006E+01  0.246732E+24  0.114731E-01  0.308290E+03  0.300741E+03  0.295518E+03  0.105011E+04  0.353791E+00  0.471212E-05  0.102206E+09  0.126087E+32  0.228196E+00  0.306238E+03  0.295613E+03  0.299112E+03  0.771804E+00  0.308896E+03  0.302257E+03  0.294257E+03
  0.315000E-02  0.500000E-04  0.128485E+03  0.202882E+01  0.243696E+24  0.113319E-01  0.308910E+03  0.303878E+03  0.295330E+03  0.103927E+04  0.358618E+00  0.477322E-05  0.101047E+09  0.123124E+32  0.236419E+00  0.310815E+03  0.305378E+03  0.300322E+03  0.763581E+00  0.308320E+03  0.303414E+03  0.293357E+03
  0.325000E-02  0.500000E-04  0.127656E+03  0.150924E+01  0.243497E+24  0.113226E-01  0.305894E+03  0.300527E+03  0.295708E+03  0.102829E+04  0.358036E+00  0.476543E-05  0.100998E+09  0.122964E+32  0.231694E+00  0.305934E+03  0.305148E+03  0.299880E+03  0.768306E+00  0.305882E+03  0.299134E+03  0.294171E+03
  0.335000E-02  0.500000E-04  0.127100E+03  0.176870E+01  0.234211E+24  0.108908E-01  0.310229E+03  0.304441E+03  0.297061E+03  0.100309E+04  0.353988E+00  0.497183E-05  0.969858E+08  0.113576E+32  0.234760E+00  0.311363E+03  0.301399E+03  0.301512E+03  0.765240E+00  0.309881E+03  0.305374E+03  0.295370E+03
  0.345000E-02  0.500000E-04  0.126082E+03 -0.165419E+01  0.239703E+24  0.111462E-01  0.307152E+03  0.300165E+03  0.296613E+03  0.101643E+04  0.352903E+00  0.484580E-05  0.991359E+08  0.118816E+32  0.222016E+00  0.311524E+03  0.303978E+03  0.300090E+03  0.777984E+00  0.305905E+03  0.299077E+03  0.295447E+03
  0.355000E-02  0.500000E-04  0.124295E+03  0.203360E+01  0.243475E+24  0.113216E-01  0.306486E+03  0.303240E+03  0.296714E+03  0.103018E+04  0.348297E+00  0.476815E-05  0.100448E+09  0.122282E+32  0.207056E+00  0.302275E+03  0.297463E+03  0.301346E+03  0.792944E+00  0.307585E+03  0.304749E+03  0.295218E+03
  0.365000E-02  0.500000E-04  0.124183E+03  0.127423E+01  0.243101E+24  0.113042E-01  0.304229E+03  0.301876E+03  0.297248E+03  0.102103E+04  0.349240E+00  0.476667E-05  0.100461E+09  0.122111E+32  0.211374E+00  0.306068E+03  0.301742E+03  0.301581E+03  0.788626E+00  0.303736E+03  0.301912E+03  0.295831E+03
  0.375000E-02  0.500000E-04  0.127792E+03 -0.284463E+01  0.243526E+24  0.113240E-01  0.302000E+03  0.295744E+03  0.296551E+03  0.101532E+04  0.360785E+00  0.474962E-05  0.101091E+09  0.123091E+32  0.207783E+00  0.301210E+03  0.296395E+03  0.301743E+03  0.792217E+00  0.302208E+03  0.295574E+03  0.294818E+03
  0.385000E-02  0.500000E-04  0.125777E+03  0.177781E+00  0.250548E+24  0.116505E-01  0.299229E+03  0.295267E+03  0.296767E+03  0.103501E+04  0.356648E+00  0.460588E-05  0.103524E+09  0.129688E+32  0.205343E+00  0.301243E+03  0.293912E+03  0.301428E+03  0.794657E+00  0.298709E+03  0.295617E+03  0.295276E+03
  0.395000E-02  0.500000E-04  0.127536E+03  0.165674E+01  0.240912E+24  0.112024E-01  0.304314E+03  0.299457E+03  0.297112E+03  0.101211E+04  0.358632E+00  0.481031E-05  0.997263E+08  0.120126E+32  0.213620E+00  0.300429E+03  0.299698E+03  0.301367E+03  0.786380E+00  0.305370E+03  0.299391E+03  0.295705E+03
  0.405000E-02  0.500000E-04  0.128444E+03 -0.920136E+00  0.243743E+24  0.113340E-01  0.303689E+03  0.297724E+03  0.296384E+03  0.102190E+04  0.361536E+00  0.475202E-05  0.100061E+09  0.121946E+32  0.196947E+00  0.303482E+03  0.296060E+03  0.299071E+03  0.803053E+00  0.303740E+03  0.298132E+03  0.295641E+03
  0.415000E-02  0.500000E-04  0.123272E+03  0.145702E+01  0.245844E+24  0.114317E-01  0.305961E+03  0.298993E+03  0.296733E+03  0.103842E+04  0.345703E+00  0.472019E-05  0.101800E+09  0.125134E+32  0.185873E+00  0.308170E+03  0.300240E+03  0.299679E+03  0.814127E+00  0.305456E+03  0.298708E+03  0.295968E+03
  0.425000E-02  0.500000E-04  0.120407E+03 -0.482637E+00  0.248057E+24  0.115347E-01  0.303285E+03  0.297755E+03  0.296945E+03  0.103861E+04  0.339133E+00  0.466780E-05  0.102659E+09  0.127326E+32  0.178204E+00  0.299460E+03  0.302074E+03  0.300870E+03  0.821796E+00  0.304114E+03  0.296819E+03  0.295935E+03
  0.435000E-02  0.500000E-04  0.121395E+03  0.181970E+01  0.248248E+24  0.115435E-01  0.304008E+03  0.299958E+03  0.296482E+03  0.104188E+04  0.341544E+00  0.466701E-05  0.101977E+09  0.126577E+32  0.185043E+00  0.305068E+03  0.295746E+03  0.301968E+03  0.814957E+00  0.303767E+03  0.300914E+03  0.294890E+03
  0.445000E-02  0.500000E-04  0.122406E+03  0.152098E+01  0.238239E+24  0.110781E-01  0.304208E+03  0.300657E+03  0.295724E+03  0.100054E+04  0.344265E+00  0.486385E-05  0.979280E+08  0.116651E+32  0.178772E+00  0.308960E+03  0.300442E+03  0.300568E+03  0.821228E+00  0.303174E+03  0.300703E+03  0.294417E+03
  0.455000E-02  0.500000E-04  0.122354E+03 -0.241589E+01  0.240903E+24  0.112020E-01  0.309267E+03  0.303748E+03  0.296568E+03  0.102855E+04  0.341331E+00  0.482995E-05  0.100027E+09  0.120485E+32  0.169754E+00  0.311305E+03  0.306914E+03  0.300616E+03  0.830246E+00  0.308850E+03  0.303100E+03  0.295582E+03
  0.465000E-02  0.500000E-04  0.124046E+03  0.638203E+00  0.242187E+24  0.112617E-01  0.309259E+03  0.302944E+03  0.297324E+03  0.103400E+04  0.345995E+00  0.480434E-05  0.100192E+09  0.121326E+32  0.162947E+00  0.307806E+03  0.304644E+03  0.300244E+03  0.837053E+00  0.309542E+03  0.302614E+03  0.296681E+03
  0.475000E-02  0.500000E-04  0.120838E+03  0.367575E+00  0.244947E+24  0.113901E-01  0.304843E+03  0.302489E+03  0.296834E+03  0.103086E+04  0.339475E+00  0.473313E-05  0.101978E+09  0.124896E+32  0.164157E+00  0.301498E+03  0.297561E+03  0.299566E+03  0.835843E+00  0.305500E+03  0.303457E+03  0.296231E+03
  0.485000E-02  0.500000E-04  0.119978E+03  0.102090E+01  0.238545E+24  0.110923E-01  0.309053E+03  0.304670E+03  0.296997E+03  0.101777E+04  0.334765E+00  0.487687E-05  0.988462E+08  0.117896E+32  0.183329E+00  0.306159E+03  0.305465E+03  0.300086E+03  0.816671E+00  0.309702E+03  0.304491E+03  0.296203E+03
  0.495000E-02  0.500000E-04  0.118469E+03  0.292465E+00  0.243211E+24  0.113093E-01  0.302988E+03  0.300594E+03  0.296678E+03  0.101732E+04  0.333836E+00  0.475965E-05  0.996319E+08  0.121158E+32  0.167453E+00  0.304219E+03  0.298687E+03  0.298551E+03  0.832547E+00  0.302740E+03  0.300978E+03  0.296270E+03
  0.505000E-02  0.500000E-04  0.118671E+03 -0.971771E+00  0.239639E+24  0.111432E-01  0.305234E+03  0.298655E+03  0.296270E+03  0.100981E+04  0.333183E+00  0.483951E-05  0.990664E+08  0.118701E+32  0.164980E+00  0.309860E+03  0.295850E+03  0.299848E+03  0.835020E+00  0.304320E+03  0.299209E+03  0.295446E+03
  0.515000E-02  0.500000E-04  0.116841E+03  0.115808E+01  0.239803E+24  0.111508E-01  0.307840E+03  0.303454E+03  0.297068E+03  0.101913E+04  0.326660E+00  0.484651E-05  0.991949E+08  0.118936E+32  0.179877E+00  0.309837E+03  0.301519E+03  0.301569E+03  0.820123E+00  0.307402E+03  0.303879E+03  0.295865E+03
  0.525000E-02  0.500000E-04  0.117444E+03 -0.220827E+01  0.236258E+24  0.109860E-01  0.306027E+03  0.301561E+03  0.297550E+03  0.998151E+03  0.329359E+00  0.491197E-05  0.975865E+08  0.115278E+32  0.173614E+00  0.307581E+03  0.305220E+03  0.301631E+03  0.826386E+00  0.305701E+03  0.300792E+03  0.296528E+03
  0.535000E-02  0.500000E-04  0.117259E+03  0.246270E+01  0.233357E+24  0.108511E-01  0.310620E+03  0.305600E+03  0.297439E+03  0.100069E+04  0.326415E+00  0.499160E-05  0.974332E+08  0.113683E+32  0.156364E+00  0.311923E+03  0.304274E+03  0.300926E+03  0.843636E+00  0.310378E+03  0.305846E+03  0.296691E+03
  0.545000E-02  0.500000E-04  0.115971E+03 -0.238189E+01  0.238485E+24  0.110896E-01  0.308470E+03  0.300908E+03  0.297487E+03  0.101560E+04  0.323948E+00  0.487579E-05  0.988661E+08  0.117890E+32  0.163037E+00  0.309765E+03  0.294859E+03  0.298726E+03  0.836963E+00  0.308217E+03  0.302086E+03  0.297232E+03