TITLE=" Box                                                                     /                                                                         "
VARIABLES="X",        "Y",      "Vx   ",      "Vy   ",      "Nden ",      "Rho  ",      "Ttrn ",      "Trot ",      "Tvib ",      "Press",      "Ma   ",      "Lambd",      "Relac",      "Coll ",      "frac1",      "Ttrn1",      "Trot1",      "Tvib1",      "frac2",      "Ttrn2",      "Trot2",      "Tvib2"
ZONE T="DSMC,BG", I=  200, J=   50, F=POINT
 -0.395000E-02  0.500000E-04  0.802518E+03  0.248020E+02  0.128393E+25  0.597025E-01  0.997554E+02  0.837780E+02  0.233143E+03  0.176817E+04  0.394305E+01  0.682963E-06  0.382437E+09  0.245510E+33  0.000000E+00  0.000000E+00  0.000000E+00  0.000000E+00  0.100000E+01  0.997554E+02  0.837780E+02  0.233143E+03
 -0.385000E-02  0.500000E-04  0.740724E+03  0.669165E+02  0.138972E+25  0.646221E-01  0.144688E+03  0.115994E+03  0.245854E+03  0.277594E+04  0.303280E+01  0.692442E-06  0.477330E+09  0.331678E+33  0.000000E+00  0.000000E+00  0.000000E+00  0.000000E+00  0.100000E+01  0.144688E+03  0.115994E+03  0.245854E+03
 -0.375000E-02  0.500000E-04  0.712245E+03  0.885149E+02  0.138387E+25  0.643497E-01  0.160790E+03  0.130524E+03  0.250357E+03  0.307187E+04  0.277630E+01  0.713960E-06  0.526298E+09  0.364163E+33  0.000000E+00  0.000000E+00  0.000000E+00  0.000000E+00  0.100000E+01  0.160790E+03  0.130524E+03  0.250357E+03
 -0.365000E-02  0.500000E-04  0.676505E+03  0.747232E+02  0.111706E+25  0.519433E-01  0.183988E+03  0.148121E+03  0.256785E+03  0.283737E+04  0.246121E+01  0.914795E-06  0.460446E+09  0.257173E+33  0.000000E+00  0.000000E+00  0.000000E+00  0.000000E+00  0.100000E+01  0.183988E+03  0.148121E+03  0.256785E+03
 -0.355000E-02  0.500000E-04  0.629255E+03  0.532722E+02  0.866371E+24  0.402862E-01  0.212297E+03  0.170304E+03  0.264110E+03  0.253919E+04  0.212591E+01  0.122246E-05  0.357587E+09  0.154901E+33  0.000000E+00  0.000000E+00  0.000000E+00  0.000000E+00  0.100000E+01  0.212297E+03  0.170304E+03  0.264110E+03
 -0.345000E-02  0.500000E-04  0.582553E+03  0.400142E+02  0.712941E+24  0.331517E-01  0.235140E+03  0.190737E+03  0.269693E+03  0.231435E+04  0.186781E+01  0.152399E-05  0.293455E+09  0.104608E+33  0.000000E+00  0.000000E+00  0.000000E+00  0.000000E+00  0.100000E+01  0.235140E+03  0.190737E+03  0.269693E+03
 -0.335000E-02  0.500000E-04  0.543525E+03  0.299366E+02  0.610675E+24  0.283964E-01  0.250823E+03  0.207044E+03  0.274227E+03  0.211460E+04  0.168590E+01  0.180815E-05  0.251635E+09  0.768335E+32  0.000000E+00  0.000000E+00  0.000000E+00  0.000000E+00  0.100000E+01  0.250823E+03  0.207044E+03  0.274227E+03
 -0.325000E-02  0.500000E-04  0.501526E+03  0.224003E+02  0.547884E+24  0.254766E-01  0.266249E+03  0.222000E+03  0.277749E+03  0.201384E+04  0.150911E+01  0.204567E-05  0.223072E+09  0.611086E+32  0.000000E+00  0.000000E+00  0.000000E+00  0.000000E+00  0.100000E+01  0.266249E+03  0.222000E+03  0.277749E+03
 -0.315000E-02  0.500000E-04  0.465280E+03  0.197173E+02  0.502150E+24  0.233500E-01  0.277071E+03  0.234428E+03  0.280599E+03  0.192076E+04  0.137230E+01  0.225433E-05  0.203932E+09  0.512022E+32  0.000000E+00  0.000000E+00  0.000000E+00  0.000000E+00  0.100000E+01  0.277071E+03  0.234428E+03  0.280599E+03
 -0.305000E-02  0.500000E-04  0.440248E+03  0.150779E+02  0.462386E+24  0.215009E-01  0.283495E+03  0.242928E+03  0.282385E+03  0.180967E+04  0.128327E+01  0.246226E-05  0.187958E+09  0.434545E+32  0.000000E+00  0.000000E+00  0.000000E+00  0.000000E+00  0.100000E+01  0.283495E+03  0.242928E+03  0.282385E+03
 -0.295000E-02  0.500000E-04  0.415877E+03  0.128370E+02  0.438276E+24  0.203798E-01  0.289487E+03  0.252091E+03  0.283651E+03  0.175156E+04  0.119949E+01  0.261134E-05  0.178216E+09  0.390539E+32  0.000000E+00  0.000000E+00  0.000000E+00  0.000000E+00  0.100000E+01  0.289487E+03  0.252091E+03  0.283651E+03
 -0.285000E-02  0.500000E-04  0.395082E+03  0.113543E+02  0.416937E+24  0.193876E-01  0.293493E+03  0.258768E+03  0.284860E+03  0.168934E+04  0.113164E+01  0.275443E-05  0.169236E+09  0.352804E+32  0.000000E+00  0.000000E+00  0.000000E+00  0.000000E+00  0.100000E+01  0.293493E+03  0.258768E+03  0.284860E+03
 -0.275000E-02  0.500000E-04  0.377050E+03  0.998358E+01  0.396411E+24  0.184331E-01  0.298137E+03  0.265112E+03  0.285881E+03  0.163159E+04  0.107148E+01  0.290845E-05  0.161730E+09  0.320557E+32  0.000000E+00  0.000000E+00  0.000000E+00  0.000000E+00  0.100000E+01  0.298137E+03  0.265112E+03  0.285881E+03
 -0.265000E-02  0.500000E-04  0.356784E+03  0.935754E+01  0.381999E+24  0.177630E-01  0.298228E+03  0.268982E+03  0.286914E+03  0.157275E+04  0.101372E+01  0.301841E-05  0.155752E+09  0.297485E+32  0.000000E+00  0.000000E+00  0.000000E+00  0.000000E+00  0.100000E+01  0.298228E+03  0.268982E+03  0.286914E+03
 -0.255000E-02  0.500000E-04  0.342248E+03  0.694541E+01  0.368433E+24  0.171321E-01  0.298995E+03  0.269781E+03  0.287729E+03  0.152079E+04  0.971044E+00  0.313156E-05  0.149516E+09  0.275434E+32  0.000000E+00  0.000000E+00  0.000000E+00  0.000000E+00  0.100000E+01  0.298995E+03  0.269781E+03  0.287729E+03
 -0.245000E-02  0.500000E-04  0.332287E+03  0.627912E+01  0.357245E+24  0.166119E-01  0.301331E+03  0.274245E+03  0.288272E+03  0.148614E+04  0.939093E+00  0.323592E-05  0.145451E+09  0.259807E+32  0.000000E+00  0.000000E+00  0.000000E+00  0.000000E+00  0.100000E+01  0.301331E+03  0.274245E+03  0.288272E+03
 -0.235000E-02  0.500000E-04  0.323346E+03  0.371437E+01  0.348020E+24  0.161829E-01  0.302000E+03  0.275158E+03  0.288481E+03  0.145098E+04  0.912711E+00  0.332354E-05  0.141421E+09  0.246086E+32  0.000000E+00  0.000000E+00  0.000000E+00  0.000000E+00  0.100000E+01  0.302000E+03  0.275158E+03  0.288481E+03
 -0.225000E-02  0.500000E-04  0.312931E+03  0.530317E+01  0.342069E+24  0.159062E-01  0.303040E+03  0.277877E+03  0.288889E+03  0.143108E+04  0.881862E+00  0.338427E-05  0.139928E+09  0.239324E+32  0.000000E+00  0.000000E+00  0.000000E+00  0.000000E+00  0.100000E+01  0.303040E+03  0.277877E+03  0.288889E+03
 -0.215000E-02  0.500000E-04  0.300721E+03  0.615781E+01  0.337738E+24  0.157048E-01  0.306618E+03  0.282736E+03  0.289499E+03  0.142964E+04  0.842551E+00  0.343773E-05  0.138671E+09  0.234172E+32  0.000000E+00  0.000000E+00  0.000000E+00  0.000000E+00  0.100000E+01  0.306618E+03  0.282736E+03  0.289499E+03
 -0.205000E-02  0.500000E-04  0.289294E+03  0.446676E+01  0.334173E+24  0.155391E-01  0.306247E+03  0.282634E+03  0.290039E+03  0.141284E+04  0.810952E+00  0.347336E-05  0.136722E+09  0.228445E+32  0.000000E+00  0.000000E+00  0.000000E+00  0.000000E+00  0.100000E+01  0.306247E+03  0.282634E+03  0.290039E+03
 -0.195000E-02  0.500000E-04  0.281511E+03  0.367447E+01  0.328943E+24  0.152958E-01  0.306268E+03  0.285363E+03  0.290446E+03  0.139082E+04  0.789082E+00  0.352865E-05  0.134857E+09  0.221801E+32  0.000000E+00  0.000000E+00  0.000000E+00  0.000000E+00  0.100000E+01  0.306268E+03  0.285363E+03  0.290446E+03
 -0.185000E-02  0.500000E-04  0.274832E+03  0.400790E+01  0.318634E+24  0.148165E-01  0.306182E+03  0.285479E+03  0.290531E+03  0.134685E+04  0.770485E+00  0.364255E-05  0.130906E+09  0.208556E+32  0.000000E+00  0.000000E+00  0.000000E+00  0.000000E+00  0.100000E+01  0.306182E+03  0.285479E+03  0.290531E+03
 -0.175000E-02  0.500000E-04  0.267658E+03  0.382807E+01  0.314846E+24  0.146404E-01  0.306918E+03  0.285914E+03  0.290397E+03  0.133405E+04  0.749470E+00  0.368859E-05  0.129140E+09  0.203296E+32  0.000000E+00  0.000000E+00  0.000000E+00  0.000000E+00  0.100000E+01  0.306918E+03  0.285914E+03  0.290397E+03
 -0.165000E-02  0.500000E-04  0.257846E+03  0.414424E+01  0.314012E+24  0.146016E-01  0.306844E+03  0.286672E+03  0.291286E+03  0.133019E+04  0.722103E+00  0.369816E-05  0.128995E+09  0.202530E+32  0.000000E+00  0.000000E+00  0.000000E+00  0.000000E+00  0.100000E+01  0.306844E+03  0.286672E+03  0.291286E+03
 -0.155000E-02  0.500000E-04  0.252286E+03  0.275893E+01  0.306730E+24  0.142629E-01  0.306962E+03  0.289064E+03  0.291744E+03  0.129984E+04  0.706345E+00  0.378632E-05  0.125639E+09  0.192686E+32  0.000000E+00  0.000000E+00  0.000000E+00  0.000000E+00  0.100000E+01  0.306962E+03  0.289064E+03  0.291744E+03
 -0.145000E-02  0.500000E-04  0.246335E+03  0.248758E+01  0.304653E+24  0.141664E-01  0.306851E+03  0.290256E+03  0.291566E+03  0.129057E+04  0.689802E+00  0.381179E-05  0.124772E+09  0.190061E+32  0.000000E+00  0.000000E+00  0.000000E+00  0.000000E+00  0.100000E+01  0.306851E+03  0.290256E+03  0.291566E+03
 -0.135000E-02  0.500000E-04  0.245528E+03  0.174754E+01  0.298445E+24  0.138777E-01  0.307273E+03  0.289162E+03  0.291561E+03  0.126602E+04  0.687052E+00  0.389242E-05  0.122668E+09  0.183049E+32  0.000000E+00  0.000000E+00  0.000000E+00  0.000000E+00  0.100000E+01  0.307273E+03  0.289162E+03  0.291561E+03
 -0.125000E-02  0.500000E-04  0.239742E+03  0.209171E+01  0.298687E+24  0.138890E-01  0.307396E+03  0.293263E+03  0.292080E+03  0.126755E+04  0.670736E+00  0.388965E-05  0.123283E+09  0.184116E+32  0.000000E+00  0.000000E+00  0.000000E+00  0.000000E+00  0.100000E+01  0.307396E+03  0.293263E+03  0.292080E+03
 -0.115000E-02  0.500000E-04  0.233836E+03  0.128530E+01  0.298379E+24  0.138746E-01  0.307940E+03  0.291859E+03  0.292185E+03  0.126848E+04  0.653620E+00  0.389539E-05  0.122503E+09  0.182762E+32  0.000000E+00  0.000000E+00  0.000000E+00  0.000000E+00  0.100000E+01  0.307940E+03  0.291859E+03  0.292185E+03
 -0.105000E-02  0.500000E-04  0.229428E+03  0.279630E+01  0.296525E+24  0.137884E-01  0.307307E+03  0.293344E+03  0.292573E+03  0.125801E+04  0.641997E+00  0.391773E-05  0.122229E+09  0.181219E+32  0.000000E+00  0.000000E+00  0.000000E+00  0.000000E+00  0.100000E+01  0.307307E+03  0.293344E+03  0.292573E+03
 -0.950000E-03  0.500000E-04  0.225348E+03  0.193123E+01  0.292056E+24  0.135806E-01  0.309734E+03  0.294689E+03  0.292458E+03  0.124883E+04  0.628082E+00  0.398551E-05  0.120326E+09  0.175710E+32  0.000000E+00  0.000000E+00  0.000000E+00  0.000000E+00  0.100000E+01  0.309734E+03  0.294689E+03  0.292458E+03
 -0.850000E-03  0.500000E-04  0.219572E+03  0.139879E+01  0.291844E+24  0.135707E-01  0.310987E+03  0.298788E+03  0.293131E+03  0.125297E+04  0.610737E+00  0.399244E-05  0.120160E+09  0.175339E+32  0.000000E+00  0.000000E+00  0.000000E+00  0.000000E+00  0.100000E+01  0.310987E+03  0.298788E+03  0.293131E+03
 -0.750000E-03  0.500000E-04  0.209961E+03  0.379244E+01  0.292664E+24  0.136089E-01  0.310543E+03  0.297499E+03  0.293131E+03  0.125470E+04  0.584505E+00  0.397982E-05  0.120573E+09  0.176438E+32  0.000000E+00  0.000000E+00  0.000000E+00  0.000000E+00  0.100000E+01  0.310543E+03  0.297499E+03  0.293131E+03
 -0.650000E-03  0.500000E-04  0.201886E+03  0.469632E+01  0.290923E+24  0.135279E-01  0.307718E+03  0.296273E+03  0.293661E+03  0.123589E+04  0.564660E+00  0.399450E-05  0.120022E+09  0.174586E+32  0.000000E+00  0.000000E+00  0.000000E+00  0.000000E+00  0.100000E+01  0.307718E+03  0.296273E+03  0.293661E+03
 -0.550000E-03  0.500000E-04  0.204086E+03 -0.653160E+00  0.284478E+24  0.132282E-01  0.309899E+03  0.294178E+03  0.293392E+03  0.121708E+04  0.568652E+00  0.409223E-05  0.117195E+09  0.166696E+32  0.000000E+00  0.000000E+00  0.000000E+00  0.000000E+00  0.100000E+01  0.309899E+03  0.294178E+03  0.293392E+03
 -0.450000E-03  0.500000E-04  0.202912E+03  0.140089E+01  0.283423E+24  0.131792E-01  0.310193E+03  0.295586E+03  0.293434E+03  0.121371E+04  0.565123E+00  0.410842E-05  0.117025E+09  0.165839E+32  0.000000E+00  0.000000E+00  0.000000E+00  0.000000E+00  0.100000E+01  0.310193E+03  0.295586E+03  0.293434E+03
 -0.350000E-03  0.500000E-04  0.201404E+03  0.166457E+00  0.278283E+24  0.129402E-01  0.307517E+03  0.297594E+03  0.293365E+03  0.118142E+04  0.563344E+00  0.417526E-05  0.114798E+09  0.159731E+32  0.000000E+00  0.000000E+00  0.000000E+00  0.000000E+00  0.100000E+01  0.307517E+03  0.297594E+03  0.293365E+03
 -0.250000E-03  0.500000E-04  0.200743E+03  0.139518E+01  0.273465E+24  0.127161E-01  0.307286E+03  0.296783E+03  0.293550E+03  0.116010E+04  0.561720E+00  0.424802E-05  0.112980E+09  0.154480E+32  0.000000E+00  0.000000E+00  0.000000E+00  0.000000E+00  0.100000E+01  0.307286E+03  0.296783E+03  0.293550E+03
 -0.150000E-03  0.500000E-04  0.201086E+03  0.576642E+00  0.272053E+24  0.126505E-01  0.308890E+03  0.297206E+03  0.293646E+03  0.116013E+04  0.561207E+00  0.427563E-05  0.111746E+09  0.152005E+32  0.000000E+00  0.000000E+00  0.000000E+00  0.000000E+00  0.100000E+01  0.308890E+03  0.297206E+03  0.293646E+03
 -0.499999E-04  0.500000E-04  0.198052E+03  0.817117E+00  0.272159E+24  0.126554E-01  0.310938E+03  0.298321E+03  0.293985E+03  0.116827E+04  0.550918E+00  0.428104E-05  0.112983E+09  0.153747E+32  0.000000E+00  0.000000E+00  0.000000E+00  0.000000E+00  0.100000E+01  0.310938E+03  0.298321E+03  0.293985E+03
  0.499999E-04  0.500000E-04  0.193499E+03  0.781330E+00  0.274287E+24  0.127543E-01  0.309255E+03  0.298163E+03  0.294004E+03  0.117104E+04  0.539714E+00  0.424206E-05  0.113529E+09  0.155697E+32  0.000000E+00  0.000000E+00  0.000000E+00  0.000000E+00  0.100000E+01  0.309255E+03  0.298163E+03  0.294004E+03
  0.150000E-03  0.500000E-04  0.191241E+03  0.128953E+01  0.271170E+24  0.126094E-01  0.310276E+03  0.301985E+03  0.294051E+03  0.116155E+04  0.532547E+00  0.429436E-05  0.112768E+09  0.152896E+32  0.000000E+00  0.000000E+00  0.000000E+00  0.000000E+00  0.100000E+01  0.310276E+03  0.301985E+03  0.294051E+03
  0.250000E-03  0.500000E-04  0.185725E+03  0.265326E+01  0.272642E+24  0.126779E-01  0.309756E+03  0.300221E+03  0.294023E+03  0.116590E+04  0.517660E+00  0.426938E-05  0.112512E+09  0.153377E+32  0.000000E+00  0.000000E+00  0.000000E+00  0.000000E+00  0.100000E+01  0.309756E+03  0.300221E+03  0.294023E+03
  0.350000E-03  0.500000E-04  0.182586E+03  0.523741E+00  0.270470E+24  0.125768E-01  0.309011E+03  0.298329E+03  0.294116E+03  0.115383E+04  0.509476E+00  0.430108E-05  0.111158E+09  0.150324E+32  0.000000E+00  0.000000E+00  0.000000E+00  0.000000E+00  0.100000E+01  0.309011E+03  0.298329E+03  0.294116E+03
  0.450000E-03  0.500000E-04  0.181530E+03  0.216713E+01  0.268927E+24  0.125051E-01  0.309613E+03  0.298950E+03  0.294767E+03  0.114949E+04  0.506071E+00  0.432785E-05  0.111300E+09  0.149658E+32  0.000000E+00  0.000000E+00  0.000000E+00  0.000000E+00  0.100000E+01  0.309613E+03  0.298950E+03  0.294767E+03
  0.550000E-03  0.500000E-04  0.179609E+03  0.972364E+00  0.265719E+24  0.123559E-01  0.310186E+03  0.300663E+03  0.294359E+03  0.113787E+04  0.500225E+00  0.438214E-05  0.109654E+09  0.145685E+32  0.000000E+00  0.000000E+00  0.000000E+00  0.000000E+00  0.100000E+01  0.310186E+03  0.300663E+03  0.294359E+03
  0.650000E-03  0.500000E-04  0.174871E+03  0.175401E+01  0.265924E+24  0.123655E-01  0.310080E+03  0.302818E+03  0.294563E+03  0.113836E+04  0.487128E+00  0.437839E-05  0.110410E+09  0.146803E+32  0.000000E+00  0.000000E+00  0.000000E+00  0.000000E+00  0.100000E+01  0.310080E+03  0.302818E+03  0.294563E+03
  0.750000E-03  0.500000E-04  0.176024E+03  0.482375E+00  0.260105E+24  0.120949E-01  0.309149E+03  0.297922E+03  0.294306E+03  0.111011E+04  0.491054E+00  0.447297E-05  0.107462E+09  0.139757E+32  0.000000E+00  0.000000E+00  0.000000E+00  0.000000E+00  0.100000E+01  0.309149E+03  0.297922E+03  0.294306E+03
  0.850000E-03  0.500000E-04  0.171639E+03  0.527289E+00  0.262396E+24  0.122014E-01  0.309633E+03  0.300763E+03  0.294220E+03  0.112164E+04  0.478448E+00  0.443565E-05  0.108531E+09  0.142390E+32  0.000000E+00  0.000000E+00  0.000000E+00  0.000000E+00  0.100000E+01  0.309633E+03  0.300763E+03  0.294220E+03
  0.950000E-03  0.500000E-04  0.166898E+03  0.189054E+01  0.264701E+24  0.123086E-01  0.309156E+03  0.298684E+03  0.294795E+03  0.112975E+04  0.465619E+00  0.439533E-05  0.109644E+09  0.145114E+32  0.000000E+00  0.000000E+00  0.000000E+00  0.000000E+00  0.100000E+01  0.309156E+03  0.298684E+03  0.294795E+03
  0.105000E-02  0.500000E-04  0.163291E+03 -0.557683E+00  0.263247E+24  0.122410E-01  0.308278E+03  0.299157E+03  0.294583E+03  0.112035E+04  0.456178E+00  0.441647E-05  0.108890E+09  0.143325E+32  0.000000E+00  0.000000E+00  0.000000E+00  0.000000E+00  0.100000E+01  0.308278E+03  0.299157E+03  0.294583E+03
  0.115000E-02  0.500000E-04  0.166501E+03  0.921390E+00  0.257629E+24  0.119797E-01  0.306724E+03  0.299612E+03  0.294910E+03  0.109092E+04  0.466326E+00  0.450708E-05  0.106139E+09  0.136723E+32  0.000000E+00  0.000000E+00  0.000000E+00  0.000000E+00  0.100000E+01  0.306724E+03  0.299612E+03  0.294910E+03
  0.125000E-02  0.500000E-04  0.162752E+03  0.138806E+01  0.258364E+24  0.120139E-01  0.306523E+03  0.298223E+03  0.294039E+03  0.109331E+04  0.455987E+00  0.449352E-05  0.106649E+09  0.137771E+32  0.000000E+00  0.000000E+00  0.000000E+00  0.000000E+00  0.100000E+01  0.306523E+03  0.298223E+03  0.294039E+03
  0.135000E-02  0.500000E-04  0.163579E+03 -0.396814E+00  0.254625E+24  0.118401E-01  0.310583E+03  0.298220E+03  0.294816E+03  0.109176E+04  0.455281E+00  0.457453E-05  0.105571E+09  0.134404E+32  0.000000E+00  0.000000E+00  0.000000E+00  0.000000E+00  0.100000E+01  0.310583E+03  0.298220E+03  0.294816E+03
  0.145000E-02  0.500000E-04  0.161038E+03  0.162654E+01  0.258026E+24  0.119982E-01  0.306316E+03  0.299458E+03  0.295415E+03  0.109115E+04  0.451342E+00  0.449865E-05  0.106284E+09  0.137120E+32  0.000000E+00  0.000000E+00  0.000000E+00  0.000000E+00  0.100000E+01  0.306316E+03  0.299458E+03  0.295415E+03
  0.155000E-02  0.500000E-04  0.157045E+03  0.131369E+01  0.257273E+24  0.119632E-01  0.307582E+03  0.299898E+03  0.295117E+03  0.109246E+04  0.439237E+00  0.451647E-05  0.106814E+09  0.137402E+32  0.000000E+00  0.000000E+00  0.000000E+00  0.000000E+00  0.100000E+01  0.307582E+03  0.299898E+03  0.295117E+03
  0.165000E-02  0.500000E-04  0.157050E+03 -0.209063E+01  0.257962E+24  0.119953E-01  0.307156E+03  0.302572E+03  0.295276E+03  0.109387E+04  0.439580E+00  0.450284E-05  0.106736E+09  0.137670E+32  0.000000E+00  0.000000E+00  0.000000E+00  0.000000E+00  0.100000E+01  0.307156E+03  0.302572E+03  0.295276E+03
  0.175000E-02  0.500000E-04  0.155315E+03  0.329478E+01  0.255623E+24  0.118865E-01  0.310006E+03  0.301503E+03  0.296022E+03  0.109401E+04  0.432781E+00  0.455454E-05  0.105873E+09  0.135319E+32  0.000000E+00  0.000000E+00  0.000000E+00  0.000000E+00  0.100000E+01  0.310006E+03  0.301503E+03  0.296022E+03
  0.185000E-02  0.500000E-04  0.153266E+03  0.432284E+00  0.256217E+24  0.119141E-01  0.307522E+03  0.301021E+03  0.295105E+03  0.108776E+04  0.428697E+00  0.453487E-05  0.106181E+09  0.136027E+32  0.000000E+00  0.000000E+00  0.000000E+00  0.000000E+00  0.100000E+01  0.307522E+03  0.301021E+03  0.295105E+03
  0.195000E-02  0.500000E-04  0.150814E+03  0.158143E+01  0.253606E+24  0.117927E-01  0.311123E+03  0.302564E+03  0.295254E+03  0.108928E+04  0.419410E+00  0.459491E-05  0.105255E+09  0.133466E+32  0.000000E+00  0.000000E+00  0.000000E+00  0.000000E+00  0.100000E+01  0.311123E+03  0.302564E+03  0.295254E+03
  0.205000E-02  0.500000E-04  0.149585E+03  0.285123E+00  0.252236E+24  0.117290E-01  0.306973E+03  0.298125E+03  0.294846E+03  0.106895E+04  0.418773E+00  0.460438E-05  0.104248E+09  0.131476E+32  0.000000E+00  0.000000E+00  0.000000E+00  0.000000E+00  0.100000E+01  0.306973E+03  0.298125E+03  0.294846E+03
  0.215000E-02  0.500000E-04  0.148680E+03  0.136552E+01  0.252056E+24  0.117206E-01  0.306136E+03  0.298516E+03  0.295257E+03  0.106527E+04  0.416826E+00  0.460453E-05  0.104676E+09  0.131921E+32  0.000000E+00  0.000000E+00  0.000000E+00  0.000000E+00  0.100000E+01  0.306136E+03  0.298516E+03  0.295257E+03
  0.225000E-02  0.500000E-04  0.147060E+03 -0.265140E+00  0.250678E+24  0.116565E-01  0.308582E+03  0.300463E+03  0.295134E+03  0.106792E+04  0.410629E+00  0.463905E-05  0.104178E+09  0.130576E+32  0.000000E+00  0.000000E+00  0.000000E+00  0.000000E+00  0.100000E+01  0.308582E+03  0.300463E+03  0.295134E+03
  0.235000E-02  0.500000E-04  0.144284E+03 -0.905050E+00  0.254960E+24  0.118556E-01  0.306882E+03  0.300226E+03  0.295215E+03  0.108017E+04  0.404000E+00  0.455484E-05  0.105839E+09  0.134924E+32  0.000000E+00  0.000000E+00  0.000000E+00  0.000000E+00  0.100000E+01  0.306882E+03  0.300226E+03  0.295215E+03
  0.245000E-02  0.500000E-04  0.142770E+03  0.366769E+01  0.255745E+24  0.118921E-01  0.305081E+03  0.299175E+03  0.295485E+03  0.107714E+04  0.401063E+00  0.453419E-05  0.105949E+09  0.135479E+32  0.000000E+00  0.000000E+00  0.000000E+00  0.000000E+00  0.100000E+01  0.305081E+03  0.299175E+03  0.295485E+03
  0.255000E-02  0.500000E-04  0.143775E+03 -0.723267E+00  0.251677E+24  0.117030E-01  0.307738E+03  0.299908E+03  0.295753E+03  0.106924E+04  0.402011E+00  0.461748E-05  0.104475E+09  0.131470E+32  0.000000E+00  0.000000E+00  0.000000E+00  0.000000E+00  0.100000E+01  0.307738E+03  0.299908E+03  0.295753E+03
  0.265000E-02  0.500000E-04  0.142827E+03 -0.132620E+01  0.251613E+24  0.117000E-01  0.309328E+03  0.303436E+03  0.295063E+03  0.107449E+04  0.398345E+00  0.462461E-05  0.104498E+09  0.131465E+32  0.000000E+00  0.000000E+00  0.000000E+00  0.000000E+00  0.100000E+01  0.309328E+03  0.303436E+03  0.295063E+03
  0.275000E-02  0.500000E-04  0.143154E+03  0.251539E+01  0.251220E+24  0.116817E-01  0.305506E+03  0.300624E+03  0.295415E+03  0.105955E+04  0.401791E+00  0.461747E-05  0.104010E+09  0.130647E+32  0.000000E+00  0.000000E+00  0.000000E+00  0.000000E+00  0.100000E+01  0.305506E+03  0.300624E+03  0.295415E+03
  0.285000E-02  0.500000E-04  0.139942E+03  0.123321E+00  0.252061E+24  0.117209E-01  0.306689E+03  0.297512E+03  0.295254E+03  0.106722E+04  0.391957E+00  0.460650E-05  0.104465E+09  0.131658E+32  0.000000E+00  0.000000E+00  0.000000E+00  0.000000E+00  0.100000E+01  0.306689E+03  0.297512E+03  0.295254E+03
  0.295000E-02  0.500000E-04  0.139195E+03  0.309415E-01  0.251400E+24  0.116901E-01  0.308665E+03  0.302925E+03  0.295346E+03  0.107128E+04  0.388617E+00  0.462604E-05  0.103744E+09  0.130407E+32  0.000000E+00  0.000000E+00  0.000000E+00  0.000000E+00  0.100000E+01  0.308665E+03  0.302925E+03  0.295346E+03
  0.305000E-02  0.500000E-04  0.137824E+03  0.285226E+00  0.249309E+24  0.115929E-01  0.306072E+03  0.300336E+03  0.295720E+03  0.105344E+04  0.386417E+00  0.465501E-05  0.103114E+09  0.128537E+32  0.000000E+00  0.000000E+00  0.000000E+00  0.000000E+00  0.100000E+01  0.306072E+03  0.300336E+03  0.295720E+03
  0.315000E-02  0.500000E-04  0.134235E+03  0.169355E+01  0.252231E+24  0.117287E-01  0.304085E+03  0.300278E+03  0.296198E+03  0.105887E+04  0.377612E+00  0.459360E-05  0.104188E+09  0.131397E+32  0.000000E+00  0.000000E+00  0.000000E+00  0.000000E+00  0.100000E+01  0.304085E+03  0.300278E+03  0.296198E+03
  0.325000E-02  0.500000E-04  0.134468E+03 -0.238870E+00  0.250631E+24  0.116543E-01  0.305568E+03  0.300795E+03  0.296328E+03  0.105728E+04  0.377318E+00  0.462855E-05  0.103759E+09  0.130026E+32  0.000000E+00  0.000000E+00  0.000000E+00  0.000000E+00  0.100000E+01  0.305568E+03  0.300795E+03  0.296328E+03
  0.335000E-02  0.500000E-04  0.133693E+03 -0.382241E+00  0.250661E+24  0.116557E-01  0.308032E+03  0.303002E+03  0.296464E+03  0.106594E+04  0.373639E+00  0.463730E-05  0.104032E+09  0.130384E+32  0.000000E+00  0.000000E+00  0.000000E+00  0.000000E+00  0.100000E+01  0.308032E+03  0.303002E+03  0.296464E+03
  0.345000E-02  0.500000E-04  0.130794E+03  0.216142E+01  0.248156E+24  0.115393E-01  0.308144E+03  0.300931E+03  0.296089E+03  0.105567E+04  0.365520E+00  0.468454E-05  0.103091E+09  0.127913E+32  0.000000E+00  0.000000E+00  0.000000E+00  0.000000E+00  0.100000E+01  0.308144E+03  0.300931E+03  0.296089E+03
  0.355000E-02  0.500000E-04  0.128212E+03  0.143480E+01  0.249617E+24  0.116072E-01  0.307388E+03  0.299830E+03  0.295973E+03  0.105928E+04  0.358719E+00  0.465426E-05  0.103699E+09  0.129425E+32  0.000000E+00  0.000000E+00  0.000000E+00  0.000000E+00  0.100000E+01  0.307388E+03  0.299830E+03  0.295973E+03
  0.365000E-02  0.500000E-04  0.129238E+03 -0.109842E+01  0.248751E+24  0.115669E-01  0.308192E+03  0.301967E+03  0.295990E+03  0.105837E+04  0.361108E+00  0.467351E-05  0.102985E+09  0.128089E+32  0.000000E+00  0.000000E+00  0.000000E+00  0.000000E+00  0.100000E+01  0.308192E+03  0.301967E+03  0.295990E+03
  0.375000E-02  0.500000E-04  0.130544E+03  0.144452E+00  0.246127E+24  0.114449E-01  0.308086E+03  0.301619E+03  0.296418E+03  0.104684E+04  0.364806E+00  0.472293E-05  0.101943E+09  0.125455E+32  0.000000E+00  0.000000E+00  0.000000E+00  0.000000E+00  0.100000E+01  0.308086E+03  0.301619E+03  0.296418E+03
  0.385000E-02  0.500000E-04  0.131151E+03  0.430209E+00  0.246442E+24  0.114596E-01  0.311043E+03  0.304779E+03  0.295821E+03  0.105824E+04  0.364759E+00  0.472817E-05  0.102237E+09  0.125978E+32  0.000000E+00  0.000000E+00  0.000000E+00  0.000000E+00  0.100000E+01  0.311043E+03  0.304779E+03  0.295821E+03
  0.395000E-02  0.500000E-04  0.127521E+03  0.168603E+01  0.249667E+24  0.116095E-01  0.311207E+03  0.305642E+03  0.295759E+03  0.107265E+04  0.354599E+00  0.466772E-05  0.103751E+09  0.129515E+32  0.000000E+00  0.000000E+00  0.000000E+00  0.000000E+00  0.100000E+01  0.311207E+03  0.305642E+03  0.295759E+03
  0.405000E-02  0.500000E-04  0.123016E+03  0.194749E+01  0.246597E+24  0.114668E-01  0.311455E+03  0.304450E+03  0.295952E+03  0.106031E+04  0.341948E+00  0.472676E-05  0.101951E+09  0.125704E+32  0.000000E+00  0.000000E+00  0.000000E+00  0.000000E+00  0.100000E+01  0.311455E+03  0.304450E+03  0.295952E+03
  0.415000E-02  0.500000E-04  0.121107E+03  0.109920E+01  0.243912E+24  0.113419E-01  0.307507E+03  0.300137E+03  0.296139E+03  0.103547E+04  0.338765E+00  0.476359E-05  0.100990E+09  0.123164E+32  0.000000E+00  0.000000E+00  0.000000E+00  0.000000E+00  0.100000E+01  0.307507E+03  0.300137E+03  0.296139E+03
  0.425000E-02  0.500000E-04  0.124735E+03 -0.695884E+00  0.239720E+24  0.111470E-01  0.311319E+03  0.306181E+03  0.296186E+03  0.103029E+04  0.346764E+00  0.486184E-05  0.990472E+08  0.118718E+32  0.000000E+00  0.000000E+00  0.000000E+00  0.000000E+00  0.100000E+01  0.311319E+03  0.306181E+03  0.296186E+03
  0.435000E-02  0.500000E-04  0.124407E+03  0.634055E+00  0.239664E+24  0.111444E-01  0.310281E+03  0.307272E+03  0.296174E+03  0.102662E+04  0.346429E+00  0.485890E-05  0.992640E+08  0.118950E+32  0.000000E+00  0.000000E+00  0.000000E+00  0.000000E+00  0.100000E+01  0.310281E+03  0.307272E+03  0.296174E+03
  0.445000E-02  0.500000E-04  0.124057E+03 -0.161907E+01  0.240120E+24  0.111656E-01  0.311501E+03  0.305102E+03  0.295573E+03  0.103261E+04  0.344802E+00  0.485443E-05  0.100016E+09  0.120080E+32  0.000000E+00  0.000000E+00  0.000000E+00  0.000000E+00  0.100000E+01  0.311501E+03  0.305102E+03  0.295573E+03
  0.455000E-02  0.500000E-04  0.125936E+03  0.102483E+01  0.243405E+24  0.113183E-01  0.308640E+03  0.305021E+03  0.295784E+03  0.103712E+04  0.351626E+00  0.477790E-05  0.100799E+09  0.122675E+32  0.000000E+00  0.000000E+00  0.000000E+00  0.000000E+00  0.100000E+01  0.308640E+03  0.305021E+03  0.295784E+03
  0.465000E-02  0.500000E-04  0.124438E+03  0.363397E+00  0.243699E+24  0.113320E-01  0.307507E+03  0.303929E+03  0.295444E+03  0.103457E+04  0.348071E+00  0.476774E-05  0.100854E+09  0.122890E+32  0.000000E+00  0.000000E+00  0.000000E+00  0.000000E+00  0.100000E+01  0.307507E+03  0.303929E+03  0.295444E+03
  0.475000E-02  0.500000E-04  0.123011E+03  0.452271E+00  0.238718E+24  0.111004E-01  0.308598E+03  0.301417E+03  0.296039E+03  0.101701E+04  0.343473E+00  0.487155E-05  0.988594E+08  0.117997E+32  0.000000E+00  0.000000E+00  0.000000E+00  0.000000E+00  0.100000E+01  0.308598E+03  0.301417E+03  0.296039E+03
  0.485000E-02  0.500000E-04  0.123390E+03 -0.628595E+00  0.239963E+24  0.111583E-01  0.309631E+03  0.305512E+03  0.295518E+03  0.102574E+04  0.343956E+00  0.485032E-05  0.998652E+08  0.119820E+32  0.000000E+00  0.000000E+00  0.000000E+00  0.000000E+00  0.100000E+01  0.309631E+03  0.305512E+03  0.295518E+03
  0.495000E-02  0.500000E-04  0.119618E+03  0.618386E+00  0.243475E+24  0.113216E-01  0.307838E+03  0.304553E+03  0.296751E+03  0.103472E+04  0.334412E+00  0.477342E-05  0.100900E+09  0.122832E+32  0.000000E+00  0.000000E+00  0.000000E+00  0.000000E+00  0.100000E+01  0.307838E+03  0.304553E+03  0.296751E+03
  0.505000E-02  0.500000E-04  0.120996E+03 -0.623232E+00  0.238780E+24  0.111033E-01  0.309373E+03  0.304695E+03  0.296986E+03  0.101983E+04  0.337424E+00  0.487334E-05  0.988162E+08  0.117976E+32  0.000000E+00  0.000000E+00  0.000000E+00  0.000000E+00  0.100000E+01  0.309373E+03  0.304695E+03  0.296986E+03
  0.515000E-02  0.500000E-04  0.123327E+03  0.155163E+01  0.237278E+24  0.110334E-01  0.310611E+03  0.304398E+03  0.296470E+03  0.101748E+04  0.343261E+00  0.490907E-05  0.984070E+08  0.116749E+32  0.000000E+00  0.000000E+00  0.000000E+00  0.000000E+00  0.100000E+01  0.310611E+03  0.304398E+03  0.296470E+03
  0.525000E-02  0.500000E-04  0.122906E+03  0.395633E+00  0.237587E+24  0.110478E-01  0.310005E+03  0.307049E+03  0.296614E+03  0.101681E+04  0.342400E+00  0.490030E-05  0.984477E+08  0.116950E+32  0.000000E+00  0.000000E+00  0.000000E+00  0.000000E+00  0.100000E+01  0.310005E+03  0.307049E+03  0.296614E+03
  0.535000E-02  0.500000E-04  0.121871E+03 -0.263319E+01  0.238550E+24  0.110926E-01  0.310233E+03  0.304993E+03  0.296021E+03  0.102168E+04  0.339468E+00  0.488142E-05  0.994385E+08  0.118605E+32  0.000000E+00  0.000000E+00  0.000000E+00  0.000000E+00  0.100000E+01  0.310233E+03  0.304993E+03  0.296021E+03
  0.545000E-02  0.500000E-04  0.122687E+03  0.501935E+00  0.240114E+24  0.111653E-01  0.307953E+03  0.302729E+03  0.296111E+03  0.102082E+04  0.342926E+00  0.484068E-05  0.100100E+09  0.120177E+32  0.000000E+00  0.000000E+00  0.000000E+00  0.000000E+00  0.100000E+01  0.307953E+03  0.302729E+03  0.296111E+03