TITLE=" Box                                                                     /                                                                         "
VARIABLES="X",        "Y",      "Vx   ",      "Vy   ",      "Nden ",      "Rho  ",      "Ttrn ",      "Trot ",      "Tvib ",      "Press",      "Ma   ",      "Lambd",      "Relac",      "Coll ",      "frac1",      "Ttrn1",      "Trot1",      "Tvib1",      "frac2",      "Ttrn2",      "Trot2",      "Tvib2"
ZONE T="DSMC,BG", I=  200, J=   50, F=POINT
 -0.395000E-02  0.500000E-04  0.802401E+03  0.248696E+02  0.128401E+25  0.597064E-01  0.993866E+02  0.836033E+02  0.233214E+03  0.176175E+04  0.394979E+01  0.682287E-06  0.382977E+09  0.245873E+33  0.000000E+00  0.000000E+00  0.000000E+00  0.000000E+00  0.100000E+01  0.993866E+02  0.836033E+02  0.233214E+03
 -0.385000E-02  0.500000E-04  0.741683E+03  0.671240E+02  0.138755E+25  0.645211E-01  0.143297E+03  0.115383E+03  0.245713E+03  0.274495E+04  0.305147E+01  0.691853E-06  0.473940E+09  0.328808E+33  0.000000E+00  0.000000E+00  0.000000E+00  0.000000E+00  0.100000E+01  0.143297E+03  0.115383E+03  0.245713E+03
 -0.375000E-02  0.500000E-04  0.714699E+03  0.895564E+02  0.138079E+25  0.642068E-01  0.158193E+03  0.129333E+03  0.249966E+03  0.301554E+04  0.280899E+01  0.712643E-06  0.527404E+09  0.364117E+33  0.000000E+00  0.000000E+00  0.000000E+00  0.000000E+00  0.100000E+01  0.158193E+03  0.129333E+03  0.249966E+03
 -0.365000E-02  0.500000E-04  0.675856E+03  0.745803E+02  0.112069E+25  0.521121E-01  0.184204E+03  0.147715E+03  0.257081E+03  0.284992E+04  0.245738E+01  0.912099E-06  0.462183E+09  0.258982E+33  0.000000E+00  0.000000E+00  0.000000E+00  0.000000E+00  0.100000E+01  0.184204E+03  0.147715E+03  0.257081E+03
 -0.355000E-02  0.500000E-04  0.630929E+03  0.525752E+02  0.865416E+24  0.402418E-01  0.209520E+03  0.168106E+03  0.264043E+03  0.250322E+04  0.214541E+01  0.121979E-05  0.357481E+09  0.154685E+33  0.000000E+00  0.000000E+00  0.000000E+00  0.000000E+00  0.100000E+01  0.209520E+03  0.168106E+03  0.264043E+03
 -0.345000E-02  0.500000E-04  0.583678E+03  0.399295E+02  0.717025E+24  0.333416E-01  0.233414E+03  0.188955E+03  0.269547E+03  0.231052E+04  0.187829E+01  0.151252E-05  0.295805E+09  0.106050E+33  0.000000E+00  0.000000E+00  0.000000E+00  0.000000E+00  0.100000E+01  0.233414E+03  0.188955E+03  0.269547E+03
 -0.335000E-02  0.500000E-04  0.535834E+03  0.306962E+02  0.622688E+24  0.289550E-01  0.254876E+03  0.208055E+03  0.274207E+03  0.219103E+04  0.164899E+01  0.178039E-05  0.254821E+09  0.793369E+32  0.000000E+00  0.000000E+00  0.000000E+00  0.000000E+00  0.100000E+01  0.254876E+03  0.208055E+03  0.274207E+03
 -0.325000E-02  0.500000E-04  0.498640E+03  0.229594E+02  0.551380E+24  0.256392E-01  0.267495E+03  0.222581E+03  0.277537E+03  0.203617E+04  0.149702E+01  0.203508E-05  0.224799E+09  0.619748E+32  0.000000E+00  0.000000E+00  0.000000E+00  0.000000E+00  0.100000E+01  0.267495E+03  0.222581E+03  0.277537E+03
 -0.315000E-02  0.500000E-04  0.464369E+03  0.189510E+02  0.504764E+24  0.234715E-01  0.277619E+03  0.235261E+03  0.279956E+03  0.193458E+04  0.136817E+01  0.224376E-05  0.205560E+09  0.518797E+32  0.000000E+00  0.000000E+00  0.000000E+00  0.000000E+00  0.100000E+01  0.277619E+03  0.235261E+03  0.279956E+03
 -0.305000E-02  0.500000E-04  0.440366E+03  0.145246E+02  0.463302E+24  0.215436E-01  0.283545E+03  0.242193E+03  0.281830E+03  0.181357E+04  0.128345E+01  0.245750E-05  0.187956E+09  0.435402E+32  0.000000E+00  0.000000E+00  0.000000E+00  0.000000E+00  0.100000E+01  0.283545E+03  0.242193E+03  0.281830E+03
 -0.295000E-02  0.500000E-04  0.414160E+03  0.126686E+02  0.439088E+24  0.204176E-01  0.290301E+03  0.251638E+03  0.283510E+03  0.175974E+04  0.119285E+01  0.260834E-05  0.178950E+09  0.392874E+32  0.000000E+00  0.000000E+00  0.000000E+00  0.000000E+00  0.100000E+01  0.290301E+03  0.251638E+03  0.283510E+03
 -0.285000E-02  0.500000E-04  0.398113E+03  0.102038E+02  0.412822E+24  0.191962E-01  0.293188E+03  0.258151E+03  0.284573E+03  0.167093E+04  0.114082E+01  0.278116E-05  0.168388E+09  0.347572E+32  0.000000E+00  0.000000E+00  0.000000E+00  0.000000E+00  0.100000E+01  0.293188E+03  0.258151E+03  0.284573E+03
 -0.275000E-02  0.500000E-04  0.378650E+03  0.102460E+02  0.397439E+24  0.184809E-01  0.296088E+03  0.262376E+03  0.285643E+03  0.162457E+04  0.107976E+01  0.289593E-05  0.161846E+09  0.321619E+32  0.000000E+00  0.000000E+00  0.000000E+00  0.000000E+00  0.100000E+01  0.296088E+03  0.262376E+03  0.285643E+03
 -0.265000E-02  0.500000E-04  0.360859E+03  0.750957E+01  0.384325E+24  0.178711E-01  0.297889E+03  0.266781E+03  0.286731E+03  0.158053E+04  0.102576E+01  0.299929E-05  0.156540E+09  0.300812E+32  0.000000E+00  0.000000E+00  0.000000E+00  0.000000E+00  0.100000E+01  0.297889E+03  0.266781E+03  0.286731E+03
 -0.255000E-02  0.500000E-04  0.343342E+03  0.788559E+01  0.372314E+24  0.173126E-01  0.300424E+03  0.271960E+03  0.287471E+03  0.154416E+04  0.971884E+00  0.310261E-05  0.151768E+09  0.282526E+32  0.000000E+00  0.000000E+00  0.000000E+00  0.000000E+00  0.100000E+01  0.300424E+03  0.271960E+03  0.287471E+03
 -0.245000E-02  0.500000E-04  0.329709E+03  0.723242E+01  0.360422E+24  0.167596E-01  0.302916E+03  0.275025E+03  0.288007E+03  0.150724E+04  0.929424E+00  0.321161E-05  0.148164E+09  0.267008E+32  0.000000E+00  0.000000E+00  0.000000E+00  0.000000E+00  0.100000E+01  0.302916E+03  0.275025E+03  0.288007E+03
 -0.235000E-02  0.500000E-04  0.314066E+03  0.691157E+01  0.355487E+24  0.165301E-01  0.304930E+03  0.280273E+03  0.288522E+03  0.149648E+04  0.882402E+00  0.326159E-05  0.144802E+09  0.257375E+32  0.000000E+00  0.000000E+00  0.000000E+00  0.000000E+00  0.100000E+01  0.304930E+03  0.280273E+03  0.288522E+03
 -0.225000E-02  0.500000E-04  0.303183E+03  0.580121E+01  0.347225E+24  0.161460E-01  0.303475E+03  0.278464E+03  0.289294E+03  0.145473E+04  0.853814E+00  0.333521E-05  0.141892E+09  0.246342E+32  0.000000E+00  0.000000E+00  0.000000E+00  0.000000E+00  0.100000E+01  0.303475E+03  0.278464E+03  0.289294E+03
 -0.215000E-02  0.500000E-04  0.298030E+03  0.416172E+01  0.335983E+24  0.156232E-01  0.304261E+03  0.279075E+03  0.289719E+03  0.141128E+04  0.838145E+00  0.344904E-05  0.137217E+09  0.230513E+32  0.000000E+00  0.000000E+00  0.000000E+00  0.000000E+00  0.100000E+01  0.304261E+03  0.279075E+03  0.289719E+03
 -0.205000E-02  0.500000E-04  0.285649E+03  0.468176E+01  0.332941E+24  0.154818E-01  0.305206E+03  0.281748E+03  0.290225E+03  0.140284E+04  0.802112E+00  0.348324E-05  0.136531E+09  0.227284E+32  0.000000E+00  0.000000E+00  0.000000E+00  0.000000E+00  0.100000E+01  0.305206E+03  0.281748E+03  0.290225E+03
 -0.195000E-02  0.500000E-04  0.277356E+03  0.374469E+01  0.328445E+24  0.152727E-01  0.303599E+03  0.281189E+03  0.290239E+03  0.137661E+04  0.780850E+00  0.352627E-05  0.134170E+09  0.220337E+32  0.000000E+00  0.000000E+00  0.000000E+00  0.000000E+00  0.100000E+01  0.303599E+03  0.281189E+03  0.290239E+03
 -0.185000E-02  0.500000E-04  0.272514E+03  0.493907E+01  0.317424E+24  0.147602E-01  0.303721E+03  0.283262E+03  0.290627E+03  0.133096E+04  0.767120E+00  0.364907E-05  0.129928E+09  0.206211E+32  0.000000E+00  0.000000E+00  0.000000E+00  0.000000E+00  0.100000E+01  0.303721E+03  0.283262E+03  0.290627E+03
 -0.175000E-02  0.500000E-04  0.262179E+03  0.226634E+01  0.317075E+24  0.147440E-01  0.306104E+03  0.286025E+03  0.291134E+03  0.133992E+04  0.735056E+00  0.366022E-05  0.130210E+09  0.206432E+32  0.000000E+00  0.000000E+00  0.000000E+00  0.000000E+00  0.100000E+01  0.306104E+03  0.286025E+03  0.291134E+03
 -0.165000E-02  0.500000E-04  0.255757E+03  0.146858E+01  0.313046E+24  0.145566E-01  0.307098E+03  0.288445E+03  0.291343E+03  0.132719E+04  0.715874E+00  0.371034E-05  0.128268E+09  0.200769E+32  0.000000E+00  0.000000E+00  0.000000E+00  0.000000E+00  0.100000E+01  0.307098E+03  0.288445E+03  0.291343E+03
 -0.155000E-02  0.500000E-04  0.251263E+03  0.167778E+01  0.306991E+24  0.142751E-01  0.306591E+03  0.289266E+03  0.291102E+03  0.129937E+04  0.703880E+00  0.378196E-05  0.126218E+09  0.193738E+32  0.000000E+00  0.000000E+00  0.000000E+00  0.000000E+00  0.100000E+01  0.306591E+03  0.289266E+03  0.291102E+03
 -0.145000E-02  0.500000E-04  0.244345E+03  0.448005E+01  0.304433E+24  0.141561E-01  0.306972E+03  0.290737E+03  0.291747E+03  0.129015E+04  0.684175E+00  0.381493E-05  0.125390E+09  0.190864E+32  0.000000E+00  0.000000E+00  0.000000E+00  0.000000E+00  0.100000E+01  0.306972E+03  0.290737E+03  0.291747E+03
 -0.135000E-02  0.500000E-04  0.237472E+03  0.187967E+01  0.304619E+24  0.141648E-01  0.306475E+03  0.294080E+03  0.292000E+03  0.128885E+04  0.665378E+00  0.381105E-05  0.124908E+09  0.190247E+32  0.000000E+00  0.000000E+00  0.000000E+00  0.000000E+00  0.100000E+01  0.306475E+03  0.294080E+03  0.292000E+03
 -0.125000E-02  0.500000E-04  0.232638E+03  0.277546E+01  0.298949E+24  0.139011E-01  0.308250E+03  0.292223E+03  0.292216E+03  0.127218E+04  0.649981E+00  0.388895E-05  0.123211E+09  0.184169E+32  0.000000E+00  0.000000E+00  0.000000E+00  0.000000E+00  0.100000E+01  0.308250E+03  0.292223E+03  0.292216E+03
 -0.115000E-02  0.500000E-04  0.230741E+03  0.193602E+01  0.292907E+24  0.136202E-01  0.308629E+03  0.291061E+03  0.292872E+03  0.124800E+04  0.644262E+00  0.397038E-05  0.120207E+09  0.176048E+32  0.000000E+00  0.000000E+00  0.000000E+00  0.000000E+00  0.100000E+01  0.308629E+03  0.291061E+03  0.292872E+03
 -0.105000E-02  0.500000E-04  0.229896E+03  0.103691E+01  0.287231E+24  0.133562E-01  0.308277E+03  0.293176E+03  0.292672E+03  0.122242E+04  0.642254E+00  0.404769E-05  0.117869E+09  0.169279E+32  0.000000E+00  0.000000E+00  0.000000E+00  0.000000E+00  0.100000E+01  0.308277E+03  0.293176E+03  0.292672E+03
 -0.950000E-03  0.500000E-04  0.227173E+03 -0.433333E+00  0.284986E+24  0.132518E-01  0.309898E+03  0.294753E+03  0.293182E+03  0.121925E+04  0.632979E+00  0.408493E-05  0.118050E+09  0.168213E+32  0.000000E+00  0.000000E+00  0.000000E+00  0.000000E+00  0.100000E+01  0.309898E+03  0.294753E+03  0.293182E+03
 -0.850000E-03  0.500000E-04  0.219281E+03  0.359373E+01  0.288416E+24  0.134113E-01  0.310268E+03  0.296081E+03  0.292931E+03  0.123539E+04  0.610706E+00  0.403755E-05  0.119337E+09  0.172093E+32  0.000000E+00  0.000000E+00  0.000000E+00  0.000000E+00  0.100000E+01  0.310268E+03  0.296081E+03  0.292931E+03
 -0.750000E-03  0.500000E-04  0.215606E+03  0.252265E+00  0.288175E+24  0.134002E-01  0.307238E+03  0.294281E+03  0.292801E+03  0.122231E+04  0.603344E+00  0.403102E-05  0.118216E+09  0.170334E+32  0.000000E+00  0.000000E+00  0.000000E+00  0.000000E+00  0.100000E+01  0.307238E+03  0.294281E+03  0.292801E+03
 -0.650000E-03  0.500000E-04  0.210805E+03  0.955352E+00  0.287187E+24  0.133542E-01  0.307370E+03  0.295939E+03  0.292771E+03  0.121864E+04  0.589788E+00  0.404532E-05  0.118446E+09  0.170081E+32  0.000000E+00  0.000000E+00  0.000000E+00  0.000000E+00  0.100000E+01  0.307370E+03  0.295939E+03  0.292771E+03
 -0.550000E-03  0.500000E-04  0.206241E+03  0.219044E+01  0.287142E+24  0.133521E-01  0.305508E+03  0.296158E+03  0.293631E+03  0.121107E+04  0.578800E+00  0.403981E-05  0.118639E+09  0.170332E+32  0.000000E+00  0.000000E+00  0.000000E+00  0.000000E+00  0.100000E+01  0.305508E+03  0.296158E+03  0.293631E+03
 -0.450000E-03  0.500000E-04  0.202620E+03  0.307238E+01  0.283572E+24  0.131861E-01  0.306268E+03  0.292377E+03  0.293241E+03  0.119898E+04  0.567966E+00  0.409322E-05  0.116754E+09  0.165541E+32  0.000000E+00  0.000000E+00  0.000000E+00  0.000000E+00  0.100000E+01  0.306268E+03  0.292377E+03  0.293241E+03
 -0.350000E-03  0.500000E-04  0.198531E+03  0.166725E+01  0.280305E+24  0.130342E-01  0.307690E+03  0.296061E+03  0.293886E+03  0.119068E+04  0.555172E+00  0.414572E-05  0.115483E+09  0.161852E+32  0.000000E+00  0.000000E+00  0.000000E+00  0.000000E+00  0.100000E+01  0.307690E+03  0.296061E+03  0.293886E+03
 -0.250000E-03  0.500000E-04  0.197758E+03  0.109080E+01  0.276026E+24  0.128352E-01  0.307372E+03  0.294872E+03  0.293785E+03  0.117129E+04  0.553284E+00  0.420891E-05  0.113297E+09  0.156364E+32  0.000000E+00  0.000000E+00  0.000000E+00  0.000000E+00  0.100000E+01  0.307372E+03  0.294872E+03  0.293785E+03
 -0.150000E-03  0.500000E-04  0.196805E+03  0.939342E+00  0.271451E+24  0.126225E-01  0.309471E+03  0.297836E+03  0.293567E+03  0.115974E+04  0.548747E+00  0.428713E-05  0.112189E+09  0.152270E+32  0.000000E+00  0.000000E+00  0.000000E+00  0.000000E+00  0.100000E+01  0.309471E+03  0.297836E+03  0.293567E+03
 -0.499999E-04  0.500000E-04  0.196006E+03  0.116291E+01  0.270771E+24  0.125908E-01  0.312099E+03  0.299700E+03  0.293780E+03  0.116666E+04  0.544218E+00  0.430700E-05  0.112057E+09  0.151709E+32  0.000000E+00  0.000000E+00  0.000000E+00  0.000000E+00  0.100000E+01  0.312099E+03  0.299700E+03  0.293780E+03
  0.499999E-04  0.500000E-04  0.194973E+03 -0.927280E+00  0.269138E+24  0.125149E-01  0.309187E+03  0.297953E+03  0.293815E+03  0.114880E+04  0.543888E+00  0.432298E-05  0.110864E+09  0.149189E+32  0.000000E+00  0.000000E+00  0.000000E+00  0.000000E+00  0.100000E+01  0.309187E+03  0.297953E+03  0.293815E+03
  0.150000E-03  0.500000E-04  0.190834E+03  0.862237E+00  0.270722E+24  0.125886E-01  0.308534E+03  0.299001E+03  0.294193E+03  0.115312E+04  0.532904E+00  0.429542E-05  0.111477E+09  0.150897E+32  0.000000E+00  0.000000E+00  0.000000E+00  0.000000E+00  0.100000E+01  0.308534E+03  0.299001E+03  0.294193E+03
  0.250000E-03  0.500000E-04  0.185905E+03  0.150710E+01  0.272223E+24  0.126584E-01  0.309837E+03  0.300476E+03  0.294481E+03  0.116442E+04  0.518059E+00  0.427623E-05  0.112923E+09  0.153702E+32  0.000000E+00  0.000000E+00  0.000000E+00  0.000000E+00  0.100000E+01  0.309837E+03  0.300476E+03  0.294481E+03
  0.350000E-03  0.500000E-04  0.182107E+03  0.293698E+01  0.275356E+24  0.128040E-01  0.307390E+03  0.297685E+03  0.294808E+03  0.116851E+04  0.509541E+00  0.421921E-05  0.114107E+09  0.157100E+32  0.000000E+00  0.000000E+00  0.000000E+00  0.000000E+00  0.100000E+01  0.307390E+03  0.297685E+03  0.294808E+03
  0.450000E-03  0.500000E-04  0.181703E+03  0.199330E+01  0.269018E+24  0.125093E-01  0.309269E+03  0.299771E+03  0.294711E+03  0.114859E+04  0.506829E+00  0.432520E-05  0.111198E+09  0.149571E+32  0.000000E+00  0.000000E+00  0.000000E+00  0.000000E+00  0.100000E+01  0.309269E+03  0.299771E+03  0.294711E+03
  0.550000E-03  0.500000E-04  0.179708E+03 -0.835725E+00  0.267801E+24  0.124528E-01  0.309316E+03  0.297957E+03  0.294917E+03  0.114357E+04  0.501200E+00  0.434501E-05  0.110445E+09  0.147886E+32  0.000000E+00  0.000000E+00  0.000000E+00  0.000000E+00  0.100000E+01  0.309316E+03  0.297957E+03  0.294917E+03
  0.650000E-03  0.500000E-04  0.173351E+03  0.189255E+01  0.268679E+24  0.124936E-01  0.310064E+03  0.301614E+03  0.294518E+03  0.115009E+04  0.482912E+00  0.433343E-05  0.111075E+09  0.149218E+32  0.000000E+00  0.000000E+00  0.000000E+00  0.000000E+00  0.100000E+01  0.310064E+03  0.301614E+03  0.294518E+03
  0.750000E-03  0.500000E-04  0.171863E+03  0.539895E+00  0.267613E+24  0.124440E-01  0.308190E+03  0.300157E+03  0.294656E+03  0.113861E+04  0.480193E+00  0.434411E-05  0.110286E+09  0.147570E+32  0.000000E+00  0.000000E+00  0.000000E+00  0.000000E+00  0.100000E+01  0.308190E+03  0.300157E+03  0.294656E+03
  0.850000E-03  0.500000E-04  0.172243E+03  0.245542E+01  0.264679E+24  0.123076E-01  0.308143E+03  0.297730E+03  0.295078E+03  0.112595E+04  0.481338E+00  0.439210E-05  0.109335E+09  0.144693E+32  0.000000E+00  0.000000E+00  0.000000E+00  0.000000E+00  0.100000E+01  0.308143E+03  0.297730E+03  0.295078E+03
  0.950000E-03  0.500000E-04  0.167543E+03  0.169672E+01  0.264501E+24  0.122993E-01  0.306522E+03  0.299782E+03  0.295166E+03  0.111928E+04  0.469417E+00  0.438927E-05  0.109145E+09  0.144344E+32  0.000000E+00  0.000000E+00  0.000000E+00  0.000000E+00  0.100000E+01  0.306522E+03  0.299782E+03  0.295166E+03
  0.105000E-02  0.500000E-04  0.166514E+03  0.327836E+00  0.265574E+24  0.123492E-01  0.305288E+03  0.297011E+03  0.294594E+03  0.111929E+04  0.467453E+00  0.436711E-05  0.109681E+09  0.145642E+32  0.000000E+00  0.000000E+00  0.000000E+00  0.000000E+00  0.100000E+01  0.305288E+03  0.297011E+03  0.294594E+03
  0.115000E-02  0.500000E-04  0.167607E+03 -0.149526E+01  0.260639E+24  0.121197E-01  0.305964E+03  0.298510E+03  0.294839E+03  0.110093E+04  0.470020E+00  0.445226E-05  0.107127E+09  0.139607E+32  0.000000E+00  0.000000E+00  0.000000E+00  0.000000E+00  0.100000E+01  0.305964E+03  0.298510E+03  0.294839E+03
  0.125000E-02  0.500000E-04  0.166423E+03 -0.755133E+00  0.260407E+24  0.121089E-01  0.307603E+03  0.302144E+03  0.294721E+03  0.110584E+04  0.465441E+00  0.446219E-05  0.107871E+09  0.140452E+32  0.000000E+00  0.000000E+00  0.000000E+00  0.000000E+00  0.100000E+01  0.307603E+03  0.302144E+03  0.294721E+03
  0.135000E-02  0.500000E-04  0.163877E+03  0.230881E+01  0.259828E+24  0.120820E-01  0.305905E+03  0.298299E+03  0.294702E+03  0.109729E+04  0.459631E+00  0.446594E-05  0.107029E+09  0.139046E+32  0.000000E+00  0.000000E+00  0.000000E+00  0.000000E+00  0.100000E+01  0.305905E+03  0.298299E+03  0.294702E+03
  0.145000E-02  0.500000E-04  0.159852E+03  0.347514E+00  0.261198E+24  0.121457E-01  0.306046E+03  0.296241E+03  0.295475E+03  0.110358E+04  0.448194E+00  0.444304E-05  0.108206E+09  0.141316E+32  0.000000E+00  0.000000E+00  0.000000E+00  0.000000E+00  0.100000E+01  0.306046E+03  0.296241E+03  0.295475E+03
  0.155000E-02  0.500000E-04  0.159966E+03 -0.648275E+00  0.258995E+24  0.120433E-01  0.308578E+03  0.300593E+03  0.294853E+03  0.110333E+04  0.446673E+00  0.449006E-05  0.107364E+09  0.139034E+32  0.000000E+00  0.000000E+00  0.000000E+00  0.000000E+00  0.100000E+01  0.308578E+03  0.300593E+03  0.294853E+03
  0.165000E-02  0.500000E-04  0.158164E+03  0.305488E+01  0.257346E+24  0.119666E-01  0.309628E+03  0.302512E+03  0.295261E+03  0.110004E+04  0.440969E+00  0.452267E-05  0.107290E+09  0.138053E+32  0.000000E+00  0.000000E+00  0.000000E+00  0.000000E+00  0.100000E+01  0.309628E+03  0.302512E+03  0.295261E+03
  0.175000E-02  0.500000E-04  0.159692E+03 -0.185848E+01  0.251445E+24  0.116922E-01  0.310681E+03  0.302948E+03  0.295238E+03  0.107847E+04  0.444421E+00  0.463275E-05  0.104114E+09  0.130895E+32  0.000000E+00  0.000000E+00  0.000000E+00  0.000000E+00  0.100000E+01  0.310681E+03  0.302948E+03  0.295238E+03
  0.185000E-02  0.500000E-04  0.156305E+03 -0.184780E+01  0.255626E+24  0.118866E-01  0.309983E+03  0.304421E+03  0.294905E+03  0.109394E+04  0.435486E+00  0.455441E-05  0.105505E+09  0.134850E+32  0.000000E+00  0.000000E+00  0.000000E+00  0.000000E+00  0.100000E+01  0.309983E+03  0.304421E+03  0.294905E+03
  0.195000E-02  0.500000E-04  0.154552E+03  0.421495E+01  0.249502E+24  0.116019E-01  0.308596E+03  0.302041E+03  0.295249E+03  0.106295E+04  0.431700E+00  0.466097E-05  0.103576E+09  0.129212E+32  0.000000E+00  0.000000E+00  0.000000E+00  0.000000E+00  0.100000E+01  0.308596E+03  0.302041E+03  0.295249E+03
  0.205000E-02  0.500000E-04  0.154615E+03 -0.321327E+00  0.249354E+24  0.115950E-01  0.310609E+03  0.302102E+03  0.295314E+03  0.106925E+04  0.430316E+00  0.467132E-05  0.103096E+09  0.128537E+32  0.000000E+00  0.000000E+00  0.000000E+00  0.000000E+00  0.100000E+01  0.310609E+03  0.302102E+03  0.295314E+03
  0.215000E-02  0.500000E-04  0.152661E+03 -0.174117E+01  0.255063E+24  0.118604E-01  0.307758E+03  0.300629E+03  0.295203E+03  0.108369E+04  0.426867E+00  0.455626E-05  0.105566E+09  0.134629E+32  0.000000E+00  0.000000E+00  0.000000E+00  0.000000E+00  0.100000E+01  0.307758E+03  0.300629E+03  0.295203E+03
  0.225000E-02  0.500000E-04  0.151881E+03  0.241173E+01  0.254714E+24  0.118442E-01  0.307133E+03  0.299775E+03  0.295481E+03  0.108001E+04  0.425144E+00  0.456018E-05  0.105838E+09  0.134792E+32  0.000000E+00  0.000000E+00  0.000000E+00  0.000000E+00  0.100000E+01  0.307133E+03  0.299775E+03  0.295481E+03
  0.235000E-02  0.500000E-04  0.150717E+03  0.168883E+01  0.249568E+24  0.116049E-01  0.307121E+03  0.300816E+03  0.295568E+03  0.105815E+04  0.421868E+00  0.465417E-05  0.103249E+09  0.128838E+32  0.000000E+00  0.000000E+00  0.000000E+00  0.000000E+00  0.100000E+01  0.307121E+03  0.300816E+03  0.295568E+03
  0.245000E-02  0.500000E-04  0.149621E+03 -0.709223E+00  0.251588E+24  0.116989E-01  0.307271E+03  0.299428E+03  0.295620E+03  0.106724E+04  0.418676E+00  0.461735E-05  0.103627E+09  0.130357E+32  0.000000E+00  0.000000E+00  0.000000E+00  0.000000E+00  0.100000E+01  0.307271E+03  0.299428E+03  0.295620E+03
  0.255000E-02  0.500000E-04  0.148952E+03  0.910446E+00  0.250989E+24  0.116710E-01  0.308214E+03  0.298419E+03  0.295288E+03  0.106796E+04  0.416170E+00  0.463192E-05  0.103915E+09  0.130408E+32  0.000000E+00  0.000000E+00  0.000000E+00  0.000000E+00  0.100000E+01  0.308214E+03  0.298419E+03  0.295288E+03
  0.265000E-02  0.500000E-04  0.142401E+03  0.220843E+01  0.257776E+24  0.119866E-01  0.307822E+03  0.301515E+03  0.295065E+03  0.109544E+04  0.398160E+00  0.450853E-05  0.106579E+09  0.137367E+32  0.000000E+00  0.000000E+00  0.000000E+00  0.000000E+00  0.100000E+01  0.307822E+03  0.301515E+03  0.295065E+03
  0.275000E-02  0.500000E-04  0.140305E+03 -0.867897E+00  0.253491E+24  0.117874E-01  0.305389E+03  0.297784E+03  0.295240E+03  0.106873E+04  0.393818E+00  0.457565E-05  0.104672E+09  0.132667E+32  0.000000E+00  0.000000E+00  0.000000E+00  0.000000E+00  0.100000E+01  0.305389E+03  0.297784E+03  0.295240E+03
  0.285000E-02  0.500000E-04  0.139851E+03  0.729878E+00  0.251820E+24  0.117096E-01  0.308874E+03  0.304250E+03  0.294761E+03  0.107379E+04  0.390322E+00  0.461910E-05  0.104059E+09  0.131021E+32  0.000000E+00  0.000000E+00  0.000000E+00  0.000000E+00  0.100000E+01  0.308874E+03  0.304250E+03  0.294761E+03
  0.295000E-02  0.500000E-04  0.137011E+03  0.339042E+01  0.251525E+24  0.116959E-01  0.311652E+03  0.306332E+03  0.295437E+03  0.108218E+04  0.380797E+00  0.463489E-05  0.105412E+09  0.132568E+32  0.000000E+00  0.000000E+00  0.000000E+00  0.000000E+00  0.100000E+01  0.311652E+03  0.306332E+03  0.295437E+03
  0.305000E-02  0.500000E-04  0.133692E+03  0.137185E+01  0.248663E+24  0.115629E-01  0.307278E+03  0.300863E+03  0.295518E+03  0.105485E+04  0.374115E+00  0.467169E-05  0.102831E+09  0.127852E+32  0.000000E+00  0.000000E+00  0.000000E+00  0.000000E+00  0.100000E+01  0.307278E+03  0.300863E+03  0.295518E+03
  0.315000E-02  0.500000E-04  0.134957E+03 -0.880831E+00  0.248549E+24  0.115575E-01  0.307268E+03  0.300459E+03  0.295790E+03  0.105434E+04  0.377649E+00  0.467380E-05  0.102570E+09  0.127469E+32  0.000000E+00  0.000000E+00  0.000000E+00  0.000000E+00  0.100000E+01  0.307268E+03  0.300459E+03  0.295790E+03
  0.325000E-02  0.500000E-04  0.136485E+03 -0.527525E+00  0.248851E+24  0.115716E-01  0.307411E+03  0.299865E+03  0.295455E+03  0.105611E+04  0.381829E+00  0.466867E-05  0.103079E+09  0.128256E+32  0.000000E+00  0.000000E+00  0.000000E+00  0.000000E+00  0.100000E+01  0.307411E+03  0.299865E+03  0.295455E+03
  0.335000E-02  0.500000E-04  0.136359E+03  0.265720E+01  0.245389E+24  0.114106E-01  0.312684E+03  0.305897E+03  0.295262E+03  0.105928E+04  0.378315E+00  0.475470E-05  0.101902E+09  0.125028E+32  0.000000E+00  0.000000E+00  0.000000E+00  0.000000E+00  0.100000E+01  0.312684E+03  0.305897E+03  0.295262E+03
  0.345000E-02  0.500000E-04  0.131732E+03 -0.468010E+00  0.248827E+24  0.115705E-01  0.308867E+03  0.305867E+03  0.295620E+03  0.106101E+04  0.367662E+00  0.467464E-05  0.103464E+09  0.128723E+32  0.000000E+00  0.000000E+00  0.000000E+00  0.000000E+00  0.100000E+01  0.308867E+03  0.305867E+03  0.295620E+03
  0.355000E-02  0.500000E-04  0.131601E+03  0.323342E+00  0.244638E+24  0.113757E-01  0.308826E+03  0.303204E+03  0.295863E+03  0.104301E+04  0.367321E+00  0.475452E-05  0.101151E+09  0.123727E+32  0.000000E+00  0.000000E+00  0.000000E+00  0.000000E+00  0.100000E+01  0.308827E+03  0.303204E+03  0.295863E+03
  0.365000E-02  0.500000E-04  0.129397E+03  0.457205E+00  0.248071E+24  0.115353E-01  0.306393E+03  0.300549E+03  0.295762E+03  0.104931E+04  0.362600E+00  0.467946E-05  0.102772E+09  0.127474E+32  0.000000E+00  0.000000E+00  0.000000E+00  0.000000E+00  0.100000E+01  0.306393E+03  0.300549E+03  0.295762E+03
  0.375000E-02  0.500000E-04  0.129022E+03 -0.744687E-01  0.249695E+24  0.116108E-01  0.304907E+03  0.298695E+03  0.295961E+03  0.105106E+04  0.362427E+00  0.464338E-05  0.103252E+09  0.128907E+32  0.000000E+00  0.000000E+00  0.000000E+00  0.000000E+00  0.100000E+01  0.304907E+03  0.298695E+03  0.295961E+03
  0.385000E-02  0.500000E-04  0.129801E+03 -0.486738E+00  0.242499E+24  0.112762E-01  0.310834E+03  0.301867E+03  0.295651E+03  0.104061E+04  0.361126E+00  0.480424E-05  0.100842E+09  0.122270E+32  0.000000E+00  0.000000E+00  0.000000E+00  0.000000E+00  0.100000E+01  0.310834E+03  0.301867E+03  0.295651E+03
  0.395000E-02  0.500000E-04  0.126895E+03 -0.107012E+01  0.244691E+24  0.113781E-01  0.310030E+03  0.302633E+03  0.295746E+03  0.104730E+04  0.353507E+00  0.475813E-05  0.101454E+09  0.124124E+32  0.000000E+00  0.000000E+00  0.000000E+00  0.000000E+00  0.100000E+01  0.310030E+03  0.302633E+03  0.295746E+03
  0.405000E-02  0.500000E-04  0.127915E+03  0.199372E+01  0.243149E+24  0.113064E-01  0.311667E+03  0.304192E+03  0.295415E+03  0.104619E+04  0.355442E+00  0.479461E-05  0.100845E+09  0.122602E+32  0.000000E+00  0.000000E+00  0.000000E+00  0.000000E+00  0.100000E+01  0.311667E+03  0.304192E+03  0.295415E+03
  0.415000E-02  0.500000E-04  0.124229E+03 -0.277873E+01  0.247582E+24  0.115126E-01  0.310934E+03  0.305904E+03  0.296496E+03  0.106276E+04  0.345652E+00  0.470598E-05  0.102644E+09  0.127065E+32  0.000000E+00  0.000000E+00  0.000000E+00  0.000000E+00  0.100000E+01  0.310934E+03  0.305904E+03  0.296496E+03
  0.425000E-02  0.500000E-04  0.121133E+03  0.386048E+01  0.250490E+24  0.116478E-01  0.309081E+03  0.306689E+03  0.296516E+03  0.106884E+04  0.338134E+00  0.464441E-05  0.104127E+09  0.130414E+32  0.000000E+00  0.000000E+00  0.000000E+00  0.000000E+00  0.100000E+01  0.309081E+03  0.306689E+03  0.296516E+03
  0.435000E-02  0.500000E-04  0.121571E+03 -0.149187E+01  0.248612E+24  0.115604E-01  0.309154E+03  0.303852E+03  0.296772E+03  0.106107E+04  0.339169E+00  0.467978E-05  0.103057E+09  0.128106E+32  0.000000E+00  0.000000E+00  0.000000E+00  0.000000E+00  0.100000E+01  0.309154E+03  0.303852E+03  0.296772E+03
  0.445000E-02  0.500000E-04  0.120605E+03  0.251568E+01  0.246609E+24  0.114673E-01  0.312460E+03  0.304798E+03  0.296702E+03  0.106378E+04  0.334737E+00  0.473034E-05  0.103304E+09  0.127378E+32  0.000000E+00  0.000000E+00  0.000000E+00  0.000000E+00  0.100000E+01  0.312460E+03  0.304798E+03  0.296702E+03
  0.455000E-02  0.500000E-04  0.115069E+03  0.143225E+01  0.250014E+24  0.116256E-01  0.307760E+03  0.303372E+03  0.296280E+03  0.106224E+04  0.321757E+00  0.464828E-05  0.103502E+09  0.129385E+32  0.000000E+00  0.000000E+00  0.000000E+00  0.000000E+00  0.100000E+01  0.307760E+03  0.303372E+03  0.296280E+03
  0.465000E-02  0.500000E-04  0.112130E+03  0.194128E+01  0.250096E+24  0.116295E-01  0.308938E+03  0.305110E+03  0.296039E+03  0.106666E+04  0.312963E+00  0.465119E-05  0.104059E+09  0.130123E+32  0.000000E+00  0.000000E+00  0.000000E+00  0.000000E+00  0.100000E+01  0.308938E+03  0.305110E+03  0.296039E+03
  0.475000E-02  0.500000E-04  0.107270E+03 -0.785367E+00  0.255261E+24  0.118696E-01  0.307296E+03  0.301418E+03  0.295475E+03  0.108291E+04  0.300160E+00  0.455101E-05  0.105741E+09  0.134958E+32  0.000000E+00  0.000000E+00  0.000000E+00  0.000000E+00  0.100000E+01  0.307296E+03  0.301418E+03  0.295475E+03
  0.485000E-02  0.500000E-04  0.104872E+03  0.367491E+01  0.256032E+24  0.119055E-01  0.312994E+03  0.306841E+03  0.295862E+03  0.110632E+04  0.290936E+00  0.455818E-05  0.106818E+09  0.136744E+32  0.000000E+00  0.000000E+00  0.000000E+00  0.000000E+00  0.100000E+01  0.312994E+03  0.306841E+03  0.295862E+03
  0.495000E-02  0.500000E-04  0.960706E+02  0.233041E+01  0.261330E+24  0.121519E-01  0.309196E+03  0.302639E+03  0.296109E+03  0.111551E+04  0.268066E+00  0.445217E-05  0.108331E+09  0.141550E+32  0.000000E+00  0.000000E+00  0.000000E+00  0.000000E+00  0.100000E+01  0.309196E+03  0.302639E+03  0.296109E+03
  0.505000E-02  0.500000E-04  0.911972E+02  0.358567E+00  0.263825E+24  0.122679E-01  0.310192E+03  0.304939E+03  0.296328E+03  0.112979E+04  0.253986E+00  0.441361E-05  0.109768E+09  0.144798E+32  0.000000E+00  0.000000E+00  0.000000E+00  0.000000E+00  0.100000E+01  0.310192E+03  0.304939E+03  0.296328E+03
  0.515000E-02  0.500000E-04  0.853925E+02  0.207149E+01  0.272964E+24  0.126928E-01  0.311139E+03  0.306727E+03  0.297384E+03  0.117249E+04  0.237526E+00  0.426909E-05  0.113844E+09  0.155377E+32  0.000000E+00  0.000000E+00  0.000000E+00  0.000000E+00  0.100000E+01  0.311139E+03  0.306727E+03  0.297384E+03
  0.525000E-02  0.500000E-04  0.790444E+02  0.183505E+01  0.272971E+24  0.126932E-01  0.312512E+03  0.309512E+03  0.297646E+03  0.117769E+04  0.219379E+00  0.427369E-05  0.114083E+09  0.155707E+32  0.000000E+00  0.000000E+00  0.000000E+00  0.000000E+00  0.100000E+01  0.312512E+03  0.309512E+03  0.297646E+03
  0.535000E-02  0.500000E-04  0.724185E+02  0.244300E+01  0.279989E+24  0.130195E-01  0.311191E+03  0.308453E+03  0.297125E+03  0.120287E+04  0.201476E+00  0.416216E-05  0.116276E+09  0.162780E+32  0.000000E+00  0.000000E+00  0.000000E+00  0.000000E+00  0.100000E+01  0.311191E+03  0.308453E+03  0.297125E+03
  0.545000E-02  0.500000E-04  0.653788E+02  0.396317E+01  0.286036E+24  0.133007E-01  0.308866E+03  0.305045E+03  0.296810E+03  0.121966E+04  0.182805E+00  0.406654E-05  0.119144E+09  0.170397E+32  0.000000E+00  0.000000E+00  0.000000E+00  0.000000E+00  0.100000E+01  0.308867E+03  0.305045E+03  0.296810E+03