TITLE=" Box                                                                     /                                                                         "
VARIABLES="X",        "Y",      "Vx   ",      "Vy   ",      "Nden ",      "Rho  ",      "Ttrn ",      "Trot ",      "Tvib ",      "Press",      "Ma   ",      "Lambd",      "Relac",      "Coll ",      "frac1",      "Ttrn1",      "Trot1",      "Tvib1",      "frac2",      "Ttrn2",      "Trot2",      "Tvib2"
ZONE T="DSMC,BG", I=  200, J=   50, F=POINT
 -0.395000E-02  0.500000E-04  0.799579E+03  0.262723E+02  0.128333E+25  0.596750E-01  0.102075E+03  0.849773E+02  0.233722E+03  0.180845E+04  0.388396E+01  0.687215E-06  0.385179E+09  0.247157E+33  0.000000E+00  0.000000E+00  0.000000E+00  0.000000E+00  0.100000E+01  0.102075E+03  0.849773E+02  0.233722E+03
 -0.385000E-02  0.500000E-04  0.738410E+03  0.690678E+02  0.138895E+25  0.645863E-01  0.146197E+03  0.117035E+03  0.246160E+03  0.280334E+04  0.300856E+01  0.694625E-06  0.479165E+09  0.332769E+33  0.000000E+00  0.000000E+00  0.000000E+00  0.000000E+00  0.100000E+01  0.146197E+03  0.117035E+03  0.246160E+03
 -0.375000E-02  0.500000E-04  0.709229E+03  0.902503E+02  0.137983E+25  0.641619E-01  0.162286E+03  0.131623E+03  0.250883E+03  0.309139E+04  0.275279E+01  0.717710E-06  0.529651E+09  0.365413E+33  0.000000E+00  0.000000E+00  0.000000E+00  0.000000E+00  0.100000E+01  0.162286E+03  0.131623E+03  0.250883E+03
 -0.365000E-02  0.500000E-04  0.672604E+03  0.730947E+02  0.110466E+25  0.513668E-01  0.186040E+03  0.149580E+03  0.257138E+03  0.283716E+04  0.243301E+01  0.927630E-06  0.457037E+09  0.252436E+33  0.000000E+00  0.000000E+00  0.000000E+00  0.000000E+00  0.100000E+01  0.186040E+03  0.149580E+03  0.257138E+03
 -0.355000E-02  0.500000E-04  0.623115E+03  0.521003E+02  0.860466E+24  0.400117E-01  0.215055E+03  0.172533E+03  0.264374E+03  0.255466E+04  0.209144E+01  0.123483E-05  0.355630E+09  0.153004E+33  0.000000E+00  0.000000E+00  0.000000E+00  0.000000E+00  0.100000E+01  0.215055E+03  0.172533E+03  0.264374E+03
 -0.345000E-02  0.500000E-04  0.579343E+03  0.385836E+02  0.707658E+24  0.329061E-01  0.236673E+03  0.191670E+03  0.270168E+03  0.231217E+04  0.185124E+01  0.153786E-05  0.291304E+09  0.103072E+33  0.000000E+00  0.000000E+00  0.000000E+00  0.000000E+00  0.100000E+01  0.236673E+03  0.191670E+03  0.270168E+03
 -0.335000E-02  0.500000E-04  0.537666E+03  0.300018E+02  0.612606E+24  0.284862E-01  0.253942E+03  0.209840E+03  0.274186E+03  0.214765E+04  0.165752E+01  0.180803E-05  0.251137E+09  0.769239E+32  0.000000E+00  0.000000E+00  0.000000E+00  0.000000E+00  0.100000E+01  0.253942E+03  0.209840E+03  0.274186E+03
 -0.325000E-02  0.500000E-04  0.498643E+03  0.246486E+02  0.546340E+24  0.254048E-01  0.269550E+03  0.225977E+03  0.277451E+03  0.203307E+04  0.149156E+01  0.205778E-05  0.224571E+09  0.613462E+32  0.000000E+00  0.000000E+00  0.000000E+00  0.000000E+00  0.100000E+01  0.269550E+03  0.225977E+03  0.277451E+03
 -0.315000E-02  0.500000E-04  0.464217E+03  0.183404E+02  0.495901E+24  0.230594E-01  0.278776E+03  0.236620E+03  0.280213E+03  0.190853E+04  0.136481E+01  0.228624E-05  0.201407E+09  0.499390E+32  0.000000E+00  0.000000E+00  0.000000E+00  0.000000E+00  0.100000E+01  0.278776E+03  0.236620E+03  0.280213E+03
 -0.305000E-02  0.500000E-04  0.435825E+03  0.159539E+02  0.462758E+24  0.215182E-01  0.286139E+03  0.246540E+03  0.282538E+03  0.182801E+04  0.126460E+01  0.246600E-05  0.188399E+09  0.435915E+32  0.000000E+00  0.000000E+00  0.000000E+00  0.000000E+00  0.100000E+01  0.286139E+03  0.246540E+03  0.282538E+03
 -0.295000E-02  0.500000E-04  0.414402E+03  0.113068E+02  0.432065E+24  0.200910E-01  0.290842E+03  0.252309E+03  0.283896E+03  0.173482E+04  0.119233E+01  0.265197E-05  0.176031E+09  0.380285E+32  0.000000E+00  0.000000E+00  0.000000E+00  0.000000E+00  0.100000E+01  0.290842E+03  0.252309E+03  0.283896E+03
 -0.285000E-02  0.500000E-04  0.387516E+03  0.127816E+02  0.416689E+24  0.193760E-01  0.297206E+03  0.262776E+03  0.284959E+03  0.170969E+04  0.110316E+01  0.276474E-05  0.170231E+09  0.354667E+32  0.000000E+00  0.000000E+00  0.000000E+00  0.000000E+00  0.100000E+01  0.297206E+03  0.262776E+03  0.284959E+03
 -0.275000E-02  0.500000E-04  0.375312E+03  0.993290E+01  0.390826E+24  0.181734E-01  0.297929E+03  0.264560E+03  0.286100E+03  0.160748E+04  0.106691E+01  0.294950E-05  0.160435E+09  0.313510E+32  0.000000E+00  0.000000E+00  0.000000E+00  0.000000E+00  0.100000E+01  0.297929E+03  0.264560E+03  0.286100E+03
 -0.265000E-02  0.500000E-04  0.355904E+03  0.909922E+01  0.380789E+24  0.177067E-01  0.301977E+03  0.271553E+03  0.286902E+03  0.158748E+04  0.100491E+01  0.303747E-05  0.154938E+09  0.294994E+32  0.000000E+00  0.000000E+00  0.000000E+00  0.000000E+00  0.100000E+01  0.301977E+03  0.271553E+03  0.286902E+03
 -0.255000E-02  0.500000E-04  0.344561E+03  0.748044E+01  0.366228E+24  0.170296E-01  0.303197E+03  0.274444E+03  0.287549E+03  0.153294E+04  0.970836E+00  0.316142E-05  0.150362E+09  0.275334E+32  0.000000E+00  0.000000E+00  0.000000E+00  0.000000E+00  0.100000E+01  0.303197E+03  0.274444E+03  0.287549E+03
 -0.245000E-02  0.500000E-04  0.333133E+03  0.570075E+01  0.353248E+24  0.164260E-01  0.303704E+03  0.276786E+03  0.287726E+03  0.148108E+04  0.937769E+00  0.327896E-05  0.145193E+09  0.256445E+32  0.000000E+00  0.000000E+00  0.000000E+00  0.000000E+00  0.100000E+01  0.303704E+03  0.276786E+03  0.287726E+03
 -0.235000E-02  0.500000E-04  0.315578E+03  0.655551E+01  0.352850E+24  0.164075E-01  0.304534E+03  0.278313E+03  0.288461E+03  0.148346E+04  0.887204E+00  0.328489E-05  0.143637E+09  0.253412E+32  0.000000E+00  0.000000E+00  0.000000E+00  0.000000E+00  0.100000E+01  0.304534E+03  0.278313E+03  0.288461E+03
 -0.225000E-02  0.500000E-04  0.302705E+03  0.531250E+01  0.345843E+24  0.160817E-01  0.305888E+03  0.282572E+03  0.289650E+03  0.146046E+04  0.849074E+00  0.335517E-05  0.140887E+09  0.243624E+32  0.000000E+00  0.000000E+00  0.000000E+00  0.000000E+00  0.100000E+01  0.305888E+03  0.282572E+03  0.289650E+03
 -0.215000E-02  0.500000E-04  0.297238E+03  0.407361E+01  0.334940E+24  0.155747E-01  0.305641E+03  0.282713E+03  0.290016E+03  0.141328E+04  0.834027E+00  0.346369E-05  0.138203E+09  0.231448E+32  0.000000E+00  0.000000E+00  0.000000E+00  0.000000E+00  0.100000E+01  0.305641E+03  0.282713E+03  0.290016E+03
 -0.205000E-02  0.500000E-04  0.291567E+03  0.274839E+01  0.326230E+24  0.151697E-01  0.306882E+03  0.283422E+03  0.290114E+03  0.138212E+04  0.816416E+00  0.355977E-05  0.133417E+09  0.217623E+32  0.000000E+00  0.000000E+00  0.000000E+00  0.000000E+00  0.100000E+01  0.306882E+03  0.283422E+03  0.290114E+03
 -0.195000E-02  0.500000E-04  0.286115E+03  0.328249E+01  0.320765E+24  0.149156E-01  0.306119E+03  0.284300E+03  0.290329E+03  0.135559E+04  0.802165E+00  0.361816E-05  0.131528E+09  0.210948E+32  0.000000E+00  0.000000E+00  0.000000E+00  0.000000E+00  0.100000E+01  0.306119E+03  0.284300E+03  0.290329E+03
 -0.185000E-02  0.500000E-04  0.273280E+03  0.431597E+01  0.324937E+24  0.151096E-01  0.306188E+03  0.287488E+03  0.290328E+03  0.137352E+04  0.766140E+00  0.357191E-05  0.133411E+09  0.216751E+32  0.000000E+00  0.000000E+00  0.000000E+00  0.000000E+00  0.100000E+01  0.306188E+03  0.287488E+03  0.290328E+03
 -0.175000E-02  0.500000E-04  0.256878E+03  0.470762E+01  0.326028E+24  0.151603E-01  0.308113E+03  0.289498E+03  0.291101E+03  0.138680E+04  0.717935E+00  0.356554E-05  0.133653E+09  0.217874E+32  0.000000E+00  0.000000E+00  0.000000E+00  0.000000E+00  0.100000E+01  0.308113E+03  0.289498E+03  0.291101E+03
 -0.165000E-02  0.500000E-04  0.246546E+03  0.806175E+01  0.321740E+24  0.149609E-01  0.311215E+03  0.290921E+03  0.291291E+03  0.138234E+04  0.685867E+00  0.362213E-05  0.132806E+09  0.213644E+32  0.000000E+00  0.000000E+00  0.000000E+00  0.000000E+00  0.100000E+01  0.311215E+03  0.290921E+03  0.291291E+03
 -0.155000E-02  0.500000E-04  0.221254E+03  0.727341E+01  0.329424E+24  0.153182E-01  0.313763E+03  0.294568E+03  0.291847E+03  0.142694E+04  0.613006E+00  0.354485E-05  0.135099E+09  0.222524E+32  0.000000E+00  0.000000E+00  0.000000E+00  0.000000E+00  0.100000E+01  0.313763E+03  0.294568E+03  0.291847E+03
 -0.145000E-02  0.500000E-04  0.189473E+03  0.110337E+02  0.345496E+24  0.160656E-01  0.313463E+03  0.297796E+03  0.292647E+03  0.149513E+04  0.525812E+00  0.337914E-05  0.142940E+09  0.246926E+32  0.000000E+00  0.000000E+00  0.000000E+00  0.000000E+00  0.100000E+01  0.313463E+03  0.297796E+03  0.292647E+03
 -0.135000E-02  0.500000E-04  0.161168E+03  0.840138E+01  0.355188E+24  0.165163E-01  0.315896E+03  0.304290E+03  0.292578E+03  0.154900E+04  0.445385E+00  0.329329E-05  0.147990E+09  0.262822E+32  0.000000E+00  0.000000E+00  0.000000E+00  0.000000E+00  0.100000E+01  0.315896E+03  0.304290E+03  0.292578E+03
 -0.125000E-02  0.500000E-04  0.127529E+03  0.886528E+01  0.376680E+24  0.175156E-01  0.315995E+03  0.306774E+03  0.293127E+03  0.164324E+04  0.352742E+00  0.310564E-05  0.157190E+09  0.296051E+32  0.345650E-03  0.360724E+03  0.220253E+03  0.310191E+03  0.999654E+00  0.315980E+03  0.306804E+03  0.293117E+03
 -0.115000E-02  0.500000E-04  0.101180E+03  0.104141E+02  0.400572E+24  0.186266E-01  0.312512E+03  0.304509E+03  0.294064E+03  0.172821E+04  0.282223E+00  0.291232E-05  0.167392E+09  0.335263E+32  0.918481E-02  0.320781E+03  0.307482E+03  0.303600E+03  0.990815E+00  0.312435E+03  0.304481E+03  0.293941E+03
 -0.105000E-02  0.500000E-04  0.858850E+02  0.453888E+01  0.400862E+24  0.186401E-01  0.314273E+03  0.306613E+03  0.294315E+03  0.173921E+04  0.237963E+00  0.291430E-05  0.168595E+09  0.337917E+32  0.831587E-01  0.311968E+03  0.303999E+03  0.299512E+03  0.916841E+00  0.314482E+03  0.306850E+03  0.293737E+03
 -0.950000E-03  0.500000E-04  0.735943E+02  0.607928E+01  0.418296E+24  0.194508E-01  0.307533E+03  0.305639E+03  0.295932E+03  0.177593E+04  0.206546E+00  0.277774E-05  0.173918E+09  0.363747E+32  0.268998E+00  0.306481E+03  0.304415E+03  0.299835E+03  0.731002E+00  0.307920E+03  0.306089E+03  0.294182E+03
 -0.850000E-03  0.500000E-04  0.669865E+02  0.299236E+01  0.423355E+24  0.196860E-01  0.306448E+03  0.301179E+03  0.296902E+03  0.179106E+04  0.187881E+00  0.274212E-05  0.176153E+09  0.372875E+32  0.446597E+00  0.304509E+03  0.301492E+03  0.300862E+03  0.553403E+00  0.308013E+03  0.300927E+03  0.292637E+03
 -0.750000E-03  0.500000E-04  0.630862E+02  0.467019E+01  0.430303E+24  0.200091E-01  0.307017E+03  0.302114E+03  0.297579E+03  0.182384E+04  0.177085E+00  0.269910E-05  0.179723E+09  0.386678E+32  0.576704E+00  0.306764E+03  0.303023E+03  0.301122E+03  0.423296E+00  0.307362E+03  0.300876E+03  0.290568E+03
 -0.650000E-03  0.500000E-04  0.586046E+02  0.432864E+01  0.430371E+24  0.200123E-01  0.305641E+03  0.304337E+03  0.298136E+03  0.181595E+04  0.164873E+00  0.269564E-05  0.179444E+09  0.386139E+32  0.679539E+00  0.304441E+03  0.304992E+03  0.300637E+03  0.320461E+00  0.308185E+03  0.302947E+03  0.290555E+03
 -0.550000E-03  0.500000E-04  0.568862E+02  0.121371E+01  0.434754E+24  0.202161E-01  0.303881E+03  0.300214E+03  0.297626E+03  0.182388E+04  0.160102E+00  0.266461E-05  0.181267E+09  0.394033E+32  0.740937E+00  0.302753E+03  0.299971E+03  0.299459E+03  0.259063E+00  0.307106E+03  0.300908E+03  0.290385E+03
 -0.450000E-03  0.500000E-04  0.597257E+02  0.168418E+01  0.445086E+24  0.206965E-01  0.299227E+03  0.295012E+03  0.298540E+03  0.183862E+04  0.169424E+00  0.259274E-05  0.183924E+09  0.409310E+32  0.796751E+00  0.298501E+03  0.295042E+03  0.299808E+03  0.203249E+00  0.302070E+03  0.294892E+03  0.291988E+03
 -0.350000E-03  0.500000E-04  0.575073E+02  0.337209E+01  0.449508E+24  0.209021E-01  0.297900E+03  0.297833E+03  0.297851E+03  0.184866E+04  0.163710E+00  0.256438E-05  0.186176E+09  0.418438E+32  0.823411E+00  0.297593E+03  0.297529E+03  0.299073E+03  0.176589E+00  0.299331E+03  0.299246E+03  0.289968E+03
 -0.250000E-03  0.500000E-04  0.570000E+02  0.258932E+01  0.452310E+24  0.210324E-01  0.293802E+03  0.292877E+03  0.298278E+03  0.183459E+04  0.163281E+00  0.253968E-05  0.186820E+09  0.422502E+32  0.854680E+00  0.292915E+03  0.292764E+03  0.299397E+03  0.145320E+00  0.299016E+03  0.293547E+03  0.288587E+03
 -0.150000E-03  0.500000E-04  0.590335E+02  0.242633E+01  0.438874E+24  0.204076E-01  0.297032E+03  0.294440E+03  0.300136E+03  0.179967E+04  0.168153E+00  0.262460E-05  0.181967E+09  0.399303E+32  0.858986E+00  0.297095E+03  0.294359E+03  0.301213E+03  0.141014E+00  0.296646E+03  0.294930E+03  0.290583E+03
 -0.499999E-04  0.500000E-04  0.591612E+02  0.222752E+01  0.435049E+24  0.202298E-01  0.295191E+03  0.292851E+03  0.300121E+03  0.177292E+04  0.169019E+00  0.264356E-05  0.180468E+09  0.392562E+32  0.877893E+00  0.295629E+03  0.292530E+03  0.301078E+03  0.122107E+00  0.292035E+03  0.295156E+03  0.289889E+03
  0.499999E-04  0.500000E-04  0.585656E+02  0.496910E+01  0.428883E+24  0.199431E-01  0.291054E+03  0.287550E+03  0.299979E+03  0.172330E+04  0.168987E+00  0.267213E-05  0.176249E+09  0.377950E+32  0.904120E+00  0.291026E+03  0.286996E+03  0.300730E+03  0.958798E-01  0.291318E+03  0.292774E+03  0.289376E+03
  0.150000E-03  0.500000E-04  0.631440E+02  0.220988E+01  0.410867E+24  0.191053E-01  0.297881E+03  0.296972E+03  0.300464E+03  0.168964E+04  0.179563E+00  0.280551E-05  0.169536E+09  0.348284E+32  0.919030E+00  0.297672E+03  0.296977E+03  0.301001E+03  0.809702E-01  0.300259E+03  0.296922E+03  0.292136E+03
  0.250000E-03  0.500000E-04  0.691328E+02  0.148140E+01  0.410327E+24  0.190802E-01  0.295778E+03  0.292530E+03  0.300109E+03  0.167550E+04  0.197216E+00  0.280423E-05  0.168955E+09  0.346634E+32  0.920457E+00  0.295585E+03  0.292514E+03  0.300566E+03  0.795432E-01  0.298022E+03  0.292717E+03  0.293284E+03
  0.350000E-03  0.500000E-04  0.699176E+02  0.439468E+01  0.397999E+24  0.185069E-01  0.295857E+03  0.292490E+03  0.299461E+03  0.162560E+04  0.199776E+00  0.289129E-05  0.163865E+09  0.326090E+32  0.920721E+00  0.296054E+03  0.292292E+03  0.299912E+03  0.792792E-01  0.293570E+03  0.294783E+03  0.292707E+03
  0.450000E-03  0.500000E-04  0.751316E+02  0.200982E+01  0.382296E+24  0.177768E-01  0.296109E+03  0.293082E+03  0.299039E+03  0.156279E+04  0.214237E+00  0.301068E-05  0.157636E+09  0.301319E+32  0.927493E+00  0.295619E+03  0.292718E+03  0.299549E+03  0.725069E-01  0.302376E+03  0.297739E+03  0.289812E+03
  0.550000E-03  0.500000E-04  0.786490E+02  0.123992E+00  0.383809E+24  0.178471E-01  0.291998E+03  0.289160E+03  0.299087E+03  0.154719E+04  0.225759E+00  0.298836E-05  0.157607E+09  0.302456E+32  0.927325E+00  0.292016E+03  0.289419E+03  0.299659E+03  0.726753E-01  0.291767E+03  0.285866E+03  0.288018E+03
  0.650000E-03  0.500000E-04  0.876907E+02  0.221814E+01  0.366203E+24  0.170285E-01  0.294697E+03  0.290526E+03  0.299618E+03  0.148986E+04  0.250637E+00  0.313924E-05  0.150846E+09  0.276201E+32  0.938289E+00  0.294721E+03  0.290217E+03  0.300190E+03  0.617107E-01  0.294323E+03  0.295211E+03  0.283868E+03
  0.750000E-03  0.500000E-04  0.943008E+02 -0.892288E+00  0.360545E+24  0.167654E-01  0.289590E+03  0.288725E+03  0.299575E+03  0.144142E+04  0.271822E+00  0.317460E-05  0.146689E+09  0.264440E+32  0.930046E+00  0.289358E+03  0.288502E+03  0.300129E+03  0.699539E-01  0.292670E+03  0.291682E+03  0.288332E+03
  0.850000E-03  0.500000E-04  0.101540E+03  0.595712E-01  0.345703E+24  0.160752E-01  0.293732E+03  0.287539E+03  0.299281E+03  0.140186E+04  0.290605E+00  0.332267E-05  0.142029E+09  0.245500E+32  0.935412E+00  0.293791E+03  0.287602E+03  0.299849E+03  0.645885E-01  0.292874E+03  0.286625E+03  0.285403E+03
  0.950000E-03  0.500000E-04  0.104094E+03 -0.141967E+01  0.336230E+24  0.156347E-01  0.294476E+03  0.292852E+03  0.298979E+03  0.136690E+04  0.297566E+00  0.341844E-05  0.137606E+09  0.231337E+32  0.938672E+00  0.294377E+03  0.292908E+03  0.299456E+03  0.613284E-01  0.295985E+03  0.291992E+03  0.287930E+03
  0.105000E-02  0.500000E-04  0.106101E+03  0.140376E+01  0.322822E+24  0.150112E-01  0.291192E+03  0.289603E+03  0.299110E+03  0.129775E+04  0.305005E+00  0.355046E-05  0.133181E+09  0.214969E+32  0.935168E+00  0.291255E+03  0.289809E+03  0.299605E+03  0.648319E-01  0.290291E+03  0.286637E+03  0.288487E+03
  0.115000E-02  0.500000E-04  0.104793E+03  0.213438E+01  0.314438E+24  0.146214E-01  0.291948E+03  0.290641E+03  0.299600E+03  0.126733E+04  0.300892E+00  0.364749E-05  0.129162E+09  0.203067E+32  0.931425E+00  0.292081E+03  0.291039E+03  0.300148E+03  0.685752E-01  0.290135E+03  0.285231E+03  0.288163E+03
  0.125000E-02  0.500000E-04  0.103131E+03  0.202335E+01  0.306258E+24  0.142410E-01  0.293322E+03  0.291038E+03  0.298604E+03  0.124017E+04  0.295421E+00  0.374931E-05  0.125029E+09  0.191456E+32  0.917173E+00  0.292930E+03  0.291353E+03  0.299259E+03  0.828271E-01  0.297665E+03  0.287548E+03  0.287562E+03
  0.135000E-02  0.500000E-04  0.106854E+03 -0.257456E+01  0.298951E+24  0.139012E-01  0.294911E+03  0.292940E+03  0.298318E+03  0.121714E+04  0.305289E+00  0.384615E-05  0.122959E+09  0.183794E+32  0.909145E+00  0.295164E+03  0.292913E+03  0.298962E+03  0.908552E-01  0.292378E+03  0.293211E+03  0.289174E+03
  0.145000E-02  0.500000E-04  0.113464E+03 -0.315484E+01  0.291386E+24  0.135494E-01  0.296452E+03  0.291058E+03  0.298619E+03  0.119253E+04  0.323362E+00  0.395114E-05  0.120155E+09  0.175058E+32  0.880832E+00  0.296249E+03  0.291642E+03  0.299375E+03  0.119168E+00  0.297945E+03  0.286742E+03  0.291127E+03
  0.155000E-02  0.500000E-04  0.112563E+03  0.216085E+01  0.292079E+24  0.135817E-01  0.294516E+03  0.293266E+03  0.299002E+03  0.118757E+04  0.321783E+00  0.393531E-05  0.119938E+09  0.175157E+32  0.854083E+00  0.294364E+03  0.292809E+03  0.299680E+03  0.145917E+00  0.295408E+03  0.295941E+03  0.294191E+03
  0.165000E-02  0.500000E-04  0.112384E+03 -0.203405E-01  0.284581E+24  0.132330E-01  0.294806E+03  0.289961E+03  0.299544E+03  0.115822E+04  0.321054E+00  0.403999E-05  0.116269E+09  0.165440E+32  0.824901E+00  0.295215E+03  0.289434E+03  0.300665E+03  0.175099E+00  0.292875E+03  0.292443E+03  0.292509E+03
  0.175000E-02  0.500000E-04  0.110396E+03  0.172429E+00  0.282161E+24  0.131205E-01  0.298059E+03  0.295336E+03  0.299609E+03  0.116104E+04  0.313650E+00  0.408583E-05  0.116575E+09  0.164465E+32  0.807053E+00  0.297477E+03  0.295650E+03  0.300562E+03  0.192947E+00  0.300494E+03  0.294024E+03  0.294725E+03
  0.185000E-02  0.500000E-04  0.109990E+03  0.111236E+01  0.285294E+24  0.132662E-01  0.298359E+03  0.294053E+03  0.299579E+03  0.117512E+04  0.312353E+00  0.404197E-05  0.116438E+09  0.166095E+32  0.774226E+00  0.297376E+03  0.293543E+03  0.300713E+03  0.225774E+00  0.301729E+03  0.295802E+03  0.294801E+03
  0.195000E-02  0.500000E-04  0.109004E+03 -0.279482E+01  0.283535E+24  0.131844E-01  0.295213E+03  0.292285E+03  0.299212E+03  0.115555E+04  0.311285E+00  0.405630E-05  0.116158E+09  0.164674E+32  0.759312E+00  0.294750E+03  0.291770E+03  0.300442E+03  0.240688E+00  0.296674E+03  0.293909E+03  0.294424E+03
  0.205000E-02  0.500000E-04  0.108590E+03  0.717994E+00  0.282949E+24  0.131571E-01  0.295813E+03  0.295291E+03  0.297837E+03  0.115551E+04  0.309692E+00  0.406673E-05  0.116321E+09  0.164565E+32  0.751262E+00  0.297161E+03  0.294835E+03  0.299225E+03  0.248738E+00  0.291741E+03  0.296666E+03  0.292524E+03
  0.215000E-02  0.500000E-04  0.105116E+03  0.617666E+01  0.272121E+24  0.126536E-01  0.301231E+03  0.297387E+03  0.299005E+03  0.113165E+04  0.297582E+00  0.424782E-05  0.112956E+09  0.153688E+32  0.742446E+00  0.301976E+03  0.298208E+03  0.300268E+03  0.257554E+00  0.299085E+03  0.295023E+03  0.294558E+03
  0.225000E-02  0.500000E-04  0.104627E+03 -0.251307E+01  0.265442E+24  0.123430E-01  0.299148E+03  0.296954E+03  0.298620E+03  0.109624E+04  0.296802E+00  0.434715E-05  0.109117E+09  0.144821E+32  0.733611E+00  0.299607E+03  0.297906E+03  0.300049E+03  0.266389E+00  0.297885E+03  0.294334E+03  0.293702E+03
  0.235000E-02  0.500000E-04  0.105251E+03  0.840717E+00  0.262036E+24  0.121847E-01  0.300264E+03  0.298057E+03  0.298550E+03  0.108621E+04  0.297939E+00  0.440775E-05  0.108441E+09  0.142077E+32  0.733357E+00  0.299345E+03  0.297176E+03  0.300083E+03  0.266643E+00  0.302792E+03  0.300479E+03  0.293174E+03
  0.245000E-02  0.500000E-04  0.101024E+03 -0.991518E+00  0.267601E+24  0.124434E-01  0.295988E+03  0.292409E+03  0.298201E+03  0.109348E+04  0.288039E+00  0.430064E-05  0.110049E+09  0.147245E+32  0.731465E+00  0.297011E+03  0.292506E+03  0.299930E+03  0.268535E+00  0.293202E+03  0.292146E+03  0.291957E+03
  0.255000E-02  0.500000E-04  0.986896E+02 -0.810702E+00  0.261651E+24  0.121668E-01  0.301556E+03  0.300876E+03  0.298628E+03  0.108928E+04  0.278768E+00  0.441899E-05  0.108581E+09  0.142052E+32  0.729543E+00  0.302149E+03  0.301467E+03  0.300038E+03  0.270457E+00  0.299958E+03  0.299282E+03  0.293911E+03
  0.265000E-02  0.500000E-04  0.102266E+03  0.156849E+01  0.260923E+24  0.121329E-01  0.299184E+03  0.293051E+03  0.298586E+03  0.107770E+04  0.290037E+00  0.442258E-05  0.108098E+09  0.141027E+32  0.713510E+00  0.298878E+03  0.291333E+03  0.299596E+03  0.286490E+00  0.299949E+03  0.297328E+03  0.295704E+03
  0.275000E-02  0.500000E-04  0.989373E+02  0.195137E-01  0.258711E+24  0.120300E-01  0.298417E+03  0.294260E+03  0.297841E+03  0.106583E+04  0.280925E+00  0.445753E-05  0.106199E+09  0.137374E+32  0.710229E+00  0.298976E+03  0.293318E+03  0.299395E+03  0.289771E+00  0.297046E+03  0.296569E+03  0.293084E+03
  0.285000E-02  0.500000E-04  0.988054E+02  0.250951E+01  0.255706E+24  0.118903E-01  0.303350E+03  0.299742E+03  0.298375E+03  0.107086E+04  0.278349E+00  0.452844E-05  0.105929E+09  0.135434E+32  0.690604E+00  0.303650E+03  0.298476E+03  0.300116E+03  0.309396E+00  0.302678E+03  0.302567E+03  0.293468E+03
  0.295000E-02  0.500000E-04  0.976182E+02  0.189483E+01  0.249162E+24  0.115860E-01  0.303930E+03  0.301413E+03  0.298823E+03  0.104545E+04  0.274705E+00  0.464958E-05  0.103098E+09  0.128441E+32  0.670252E+00  0.304636E+03  0.299720E+03  0.300927E+03  0.329748E+00  0.302496E+03  0.304855E+03  0.293219E+03
  0.305000E-02  0.500000E-04  0.962528E+02 -0.173278E+01  0.254122E+24  0.118167E-01  0.303613E+03  0.298771E+03  0.299104E+03  0.106515E+04  0.270997E+00  0.455766E-05  0.105002E+09  0.133416E+32  0.675782E+00  0.303662E+03  0.299208E+03  0.301105E+03  0.324218E+00  0.303512E+03  0.297862E+03  0.293702E+03
  0.315000E-02  0.500000E-04  0.972514E+02  0.360474E+00  0.256635E+24  0.119335E-01  0.301294E+03  0.297064E+03  0.299655E+03  0.106747E+04  0.274818E+00  0.450436E-05  0.105489E+09  0.135361E+32  0.666636E+00  0.302775E+03  0.297162E+03  0.301773E+03  0.333364E+00  0.298332E+03  0.296868E+03  0.294127E+03
  0.325000E-02  0.500000E-04  0.100931E+03 -0.160712E+01  0.251417E+24  0.116909E-01  0.302885E+03  0.300078E+03  0.299461E+03  0.105129E+04  0.284499E+00  0.460390E-05  0.104269E+09  0.131076E+32  0.665752E+00  0.303623E+03  0.300407E+03  0.301663E+03  0.334248E+00  0.301415E+03  0.299423E+03  0.293664E+03
  0.335000E-02  0.500000E-04  0.997568E+02  0.624815E+01  0.242474E+24  0.112750E-01  0.308528E+03  0.307139E+03  0.298591E+03  0.103278E+04  0.279117E+00  0.479581E-05  0.101569E+09  0.123139E+32  0.652874E+00  0.308694E+03  0.306101E+03  0.300355E+03  0.347126E+00  0.308217E+03  0.309090E+03  0.294521E+03
  0.345000E-02  0.500000E-04  0.949995E+02  0.399416E+01  0.241650E+24  0.112367E-01  0.302651E+03  0.300068E+03  0.297746E+03  0.100967E+04  0.268086E+00  0.478907E-05  0.999061E+08  0.120711E+32  0.632839E+00  0.303605E+03  0.301283E+03  0.299613E+03  0.367161E+00  0.301007E+03  0.297973E+03  0.293797E+03
  0.355000E-02  0.500000E-04  0.946037E+02 -0.198646E+01  0.241109E+24  0.112116E-01  0.300648E+03  0.299043E+03  0.298667E+03  0.100074E+04  0.267680E+00  0.479185E-05  0.996539E+08  0.120137E+32  0.631087E+00  0.300437E+03  0.298628E+03  0.300493E+03  0.368913E+00  0.301008E+03  0.299754E+03  0.294866E+03
  0.365000E-02  0.500000E-04  0.915940E+02  0.114126E+01  0.245938E+24  0.114361E-01  0.299296E+03  0.298423E+03  0.299045E+03  0.101619E+04  0.259712E+00  0.469247E-05  0.101837E+09  0.125228E+32  0.623384E+00  0.300465E+03  0.299170E+03  0.301066E+03  0.376616E+00  0.297359E+03  0.297186E+03  0.294897E+03
  0.375000E-02  0.500000E-04  0.911651E+02  0.267977E+01  0.246896E+24  0.114807E-01  0.301323E+03  0.298983E+03  0.299439E+03  0.102706E+04  0.257716E+00  0.468216E-05  0.102436E+09  0.126456E+32  0.642591E+00  0.300278E+03  0.300424E+03  0.301416E+03  0.357409E+00  0.303203E+03  0.296393E+03  0.294994E+03
  0.385000E-02  0.500000E-04  0.897105E+02 -0.702808E+00  0.251706E+24  0.117043E-01  0.297231E+03  0.291449E+03  0.299159E+03  0.103285E+04  0.255241E+00  0.457702E-05  0.102927E+09  0.129537E+32  0.633975E+00  0.296395E+03  0.290401E+03  0.301202E+03  0.366025E+00  0.298678E+03  0.293264E+03  0.294725E+03
  0.395000E-02  0.500000E-04  0.925601E+02  0.453642E+00  0.246652E+24  0.114693E-01  0.301459E+03  0.303250E+03  0.299603E+03  0.102651E+04  0.261491E+00  0.468733E-05  0.102289E+09  0.126149E+32  0.622905E+00  0.301811E+03  0.304589E+03  0.301821E+03  0.377095E+00  0.300879E+03  0.301037E+03  0.294954E+03
  0.405000E-02  0.500000E-04  0.888439E+02  0.673316E+01  0.246324E+24  0.114541E-01  0.300912E+03  0.297534E+03  0.299921E+03  0.102328E+04  0.251937E+00  0.469143E-05  0.101768E+09  0.125340E+32  0.618701E+00  0.300367E+03  0.296353E+03  0.301342E+03  0.381299E+00  0.301797E+03  0.299449E+03  0.297269E+03
  0.415000E-02  0.500000E-04  0.883015E+02 -0.189568E+01  0.243786E+24  0.113361E-01  0.302989E+03  0.301624E+03  0.298841E+03  0.101973E+04  0.248883E+00  0.474842E-05  0.100905E+09  0.122996E+32  0.608503E+00  0.301453E+03  0.300623E+03  0.299996E+03  0.391497E+00  0.305376E+03  0.303180E+03  0.296839E+03
  0.425000E-02  0.500000E-04  0.901505E+02 -0.329230E+01  0.237765E+24  0.110561E-01  0.303895E+03  0.301993E+03  0.298801E+03  0.997515E+03  0.253827E+00  0.487232E-05  0.984120E+08  0.116994E+32  0.614819E+00  0.303264E+03  0.302016E+03  0.300752E+03  0.385181E+00  0.304902E+03  0.301956E+03  0.294994E+03
  0.435000E-02  0.500000E-04  0.960411E+02 -0.491143E+01  0.238540E+24  0.110921E-01  0.307504E+03  0.306354E+03  0.298619E+03  0.101265E+04  0.268993E+00  0.487081E-05  0.986017E+08  0.117602E+32  0.598733E+00  0.309897E+03  0.306488E+03  0.300680E+03  0.401267E+00  0.303933E+03  0.306154E+03  0.294848E+03
  0.445000E-02  0.500000E-04  0.976809E+02  0.454745E+01  0.245196E+24  0.114016E-01  0.305828E+03  0.301374E+03  0.298076E+03  0.103524E+04  0.274273E+00  0.473215E-05  0.101423E+09  0.124343E+32  0.617468E+00  0.306400E+03  0.300403E+03  0.300076E+03  0.382532E+00  0.304904E+03  0.302941E+03  0.294094E+03
  0.455000E-02  0.500000E-04  0.939116E+02  0.468263E+01  0.237823E+24  0.110588E-01  0.309731E+03  0.305586E+03  0.298172E+03  0.101692E+04  0.262064E+00  0.489436E-05  0.991520E+08  0.117903E+32  0.580864E+00  0.310161E+03  0.305501E+03  0.299530E+03  0.419136E+00  0.309136E+03  0.305705E+03  0.296048E+03
  0.465000E-02  0.500000E-04  0.923350E+02 -0.140678E+01  0.243426E+24  0.113193E-01  0.303266E+03  0.298979E+03  0.298076E+03  0.101915E+04  0.260103E+00  0.475654E-05  0.100322E+09  0.122104E+32  0.555541E+00  0.304671E+03  0.299348E+03  0.299799E+03  0.444459E+00  0.301510E+03  0.298517E+03  0.295580E+03
  0.475000E-02  0.500000E-04  0.899605E+02 -0.608567E+00  0.250050E+24  0.116273E-01  0.298702E+03  0.294517E+03  0.298251E+03  0.103113E+04  0.255319E+00  0.461302E-05  0.102202E+09  0.127779E+32  0.556774E+00  0.298494E+03  0.294121E+03  0.300140E+03  0.443226E+00  0.298964E+03  0.295014E+03  0.295457E+03
  0.485000E-02  0.500000E-04  0.944477E+02 -0.159361E+01  0.237795E+24  0.110575E-01  0.308485E+03  0.306776E+03  0.298294E+03  0.101271E+04  0.263802E+00  0.488999E-05  0.993403E+08  0.118113E+32  0.556774E+00  0.309874E+03  0.308192E+03  0.300030E+03  0.443226E+00  0.306740E+03  0.304996E+03  0.295764E+03
  0.495000E-02  0.500000E-04  0.879858E+02  0.287664E+01  0.238579E+24  0.110939E-01  0.307817E+03  0.306282E+03  0.298331E+03  0.101385E+04  0.246116E+00  0.487129E-05  0.998377E+08  0.119096E+32  0.559198E+00  0.308741E+03  0.308165E+03  0.299871E+03  0.440802E+00  0.306645E+03  0.303893E+03  0.296103E+03
  0.505000E-02  0.500000E-04  0.843372E+02  0.390007E+01  0.238470E+24  0.110888E-01  0.303882E+03  0.300590E+03  0.297527E+03  0.100043E+04  0.237559E+00  0.485787E-05  0.986788E+08  0.117659E+32  0.555715E+00  0.304411E+03  0.299457E+03  0.299685E+03  0.444285E+00  0.303221E+03  0.302007E+03  0.294262E+03
  0.515000E-02  0.500000E-04  0.839056E+02  0.176174E+01  0.238003E+24  0.110672E-01  0.301711E+03  0.298331E+03  0.297720E+03  0.991341E+03  0.236991E+00  0.485867E-05  0.980780E+08  0.116714E+32  0.542709E+00  0.300926E+03  0.298731E+03  0.299367E+03  0.457291E+00  0.302642E+03  0.297855E+03  0.295480E+03
  0.525000E-02  0.500000E-04  0.868810E+02 -0.334152E+01  0.243139E+24  0.113059E-01  0.298484E+03  0.297765E+03  0.298473E+03  0.100190E+04  0.246846E+00  0.474328E-05  0.993162E+08  0.120738E+32  0.543155E+00  0.298579E+03  0.298893E+03  0.300257E+03  0.456845E+00  0.298370E+03  0.296424E+03  0.296016E+03
  0.535000E-02  0.500000E-04  0.912536E+02  0.193752E+01  0.242737E+24  0.112873E-01  0.299972E+03  0.295814E+03  0.298031E+03  0.100523E+04  0.258493E+00  0.475702E-05  0.999971E+08  0.121365E+32  0.530412E+00  0.301482E+03  0.297095E+03  0.300113E+03  0.469588E+00  0.298266E+03  0.294368E+03  0.295242E+03
  0.545000E-02  0.500000E-04  0.921299E+02  0.515194E+00  0.238482E+24  0.110894E-01  0.300853E+03  0.296037E+03  0.298128E+03  0.990508E+03  0.260538E+00  0.484548E-05  0.983956E+08  0.117328E+32  0.537069E+00  0.301624E+03  0.294889E+03  0.300001E+03  0.462931E+00  0.299958E+03  0.297369E+03  0.295593E+03