TITLE=" Box                                                                     /                                                                         "
VARIABLES="X",        "Y",      "Vx   ",      "Vy   ",      "Nden ",      "Rho  ",      "Ttrn ",      "Trot ",      "Tvib ",      "Press",      "Ma   ",      "Lambd",      "Relac",      "Coll ",      "frac1",      "Ttrn1",      "Trot1",      "Tvib1",      "frac2",      "Ttrn2",      "Trot2",      "Tvib2"
ZONE T="DSMC,BG", I=  200, J=   50, F=POINT
 -0.395000E-02  0.500000E-04  0.802172E+03  0.238191E+02  0.128178E+25  0.596028E-01  0.998355E+02  0.838085E+02  0.233391E+03  0.176664E+04  0.393962E+01  0.684243E-06  0.382310E+09  0.245019E+33  0.000000E+00  0.000000E+00  0.000000E+00  0.000000E+00  0.100000E+01  0.998355E+02  0.838085E+02  0.233391E+03
 -0.385000E-02  0.500000E-04  0.738241E+03  0.675712E+02  0.139294E+25  0.647715E-01  0.146487E+03  0.117540E+03  0.246676E+03  0.281696E+04  0.300433E+01  0.692982E-06  0.479088E+09  0.333669E+33  0.000000E+00  0.000000E+00  0.000000E+00  0.000000E+00  0.100000E+01  0.146487E+03  0.117540E+03  0.246676E+03
 -0.375000E-02  0.500000E-04  0.711960E+03  0.897473E+02  0.138381E+25  0.643472E-01  0.160358E+03  0.131039E+03  0.250508E+03  0.306350E+04  0.277953E+01  0.713508E-06  0.530974E+09  0.367384E+33  0.000000E+00  0.000000E+00  0.000000E+00  0.000000E+00  0.100000E+01  0.160358E+03  0.131039E+03  0.250508E+03
 -0.365000E-02  0.500000E-04  0.675287E+03  0.739808E+02  0.111341E+25  0.517734E-01  0.184368E+03  0.149169E+03  0.257294E+03  0.283393E+04  0.245400E+01  0.918270E-06  0.461356E+09  0.256838E+33  0.000000E+00  0.000000E+00  0.000000E+00  0.000000E+00  0.100000E+01  0.184368E+03  0.149169E+03  0.257294E+03
 -0.355000E-02  0.500000E-04  0.625648E+03  0.533018E+02  0.865783E+24  0.402589E-01  0.215374E+03  0.172276E+03  0.264537E+03  0.257425E+04  0.209866E+01  0.122770E-05  0.357639E+09  0.154819E+33  0.000000E+00  0.000000E+00  0.000000E+00  0.000000E+00  0.100000E+01  0.215374E+03  0.172276E+03  0.264537E+03
 -0.345000E-02  0.500000E-04  0.578579E+03  0.405485E+02  0.715489E+24  0.332703E-01  0.238302E+03  0.192195E+03  0.270349E+03  0.235386E+04  0.184290E+01  0.152364E-05  0.296381E+09  0.106029E+33  0.000000E+00  0.000000E+00  0.000000E+00  0.000000E+00  0.100000E+01  0.238302E+03  0.192195E+03  0.270349E+03
 -0.335000E-02  0.500000E-04  0.540844E+03  0.285677E+02  0.608517E+24  0.282961E-01  0.251937E+03  0.206882E+03  0.274691E+03  0.211648E+04  0.167367E+01  0.181657E-05  0.251936E+09  0.766539E+32  0.000000E+00  0.000000E+00  0.000000E+00  0.000000E+00  0.100000E+01  0.251937E+03  0.206882E+03  0.274691E+03
 -0.325000E-02  0.500000E-04  0.502993E+03  0.240555E+02  0.544383E+24  0.253138E-01  0.264998E+03  0.221017E+03  0.278210E+03  0.199158E+04  0.151732E+01  0.205641E-05  0.223368E+09  0.607990E+32  0.000000E+00  0.000000E+00  0.000000E+00  0.000000E+00  0.100000E+01  0.264998E+03  0.221017E+03  0.278210E+03
 -0.315000E-02  0.500000E-04  0.466710E+03  0.171430E+02  0.502537E+24  0.233680E-01  0.277672E+03  0.233817E+03  0.280733E+03  0.192642E+04  0.137472E+01  0.225381E-05  0.204360E+09  0.513492E+32  0.000000E+00  0.000000E+00  0.000000E+00  0.000000E+00  0.100000E+01  0.277672E+03  0.233817E+03  0.280733E+03
 -0.305000E-02  0.500000E-04  0.438157E+03  0.172974E+02  0.468308E+24  0.217763E-01  0.283622E+03  0.242960E+03  0.282266E+03  0.183367E+04  0.127714E+01  0.243140E-05  0.189450E+09  0.443605E+32  0.000000E+00  0.000000E+00  0.000000E+00  0.000000E+00  0.100000E+01  0.283622E+03  0.242960E+03  0.282266E+03
 -0.295000E-02  0.500000E-04  0.416872E+03  0.128786E+02  0.434060E+24  0.201838E-01  0.287500E+03  0.251041E+03  0.283765E+03  0.172280E+04  0.120651E+01  0.263216E-05  0.176946E+09  0.384026E+32  0.000000E+00  0.000000E+00  0.000000E+00  0.000000E+00  0.100000E+01  0.287500E+03  0.251041E+03  0.283765E+03
 -0.285000E-02  0.500000E-04  0.396111E+03  0.960569E+01  0.410575E+24  0.190918E-01  0.294828E+03  0.258753E+03  0.285526E+03  0.167113E+04  0.113188E+01  0.280028E-05  0.167577E+09  0.344014E+32  0.000000E+00  0.000000E+00  0.000000E+00  0.000000E+00  0.100000E+01  0.294828E+03  0.258753E+03  0.285526E+03
 -0.275000E-02  0.500000E-04  0.377927E+03  0.112466E+02  0.395155E+24  0.183747E-01  0.297216E+03  0.263291E+03  0.286659E+03  0.162139E+04  0.107573E+01  0.291543E-05  0.161421E+09  0.318932E+32  0.000000E+00  0.000000E+00  0.000000E+00  0.000000E+00  0.100000E+01  0.297216E+03  0.263291E+03  0.286659E+03
 -0.265000E-02  0.500000E-04  0.360876E+03  0.729492E+01  0.379120E+24  0.176291E-01  0.299293E+03  0.269023E+03  0.286822E+03  0.156647E+04  0.102339E+01  0.304404E-05  0.155044E+09  0.293902E+32  0.000000E+00  0.000000E+00  0.000000E+00  0.000000E+00  0.100000E+01  0.299293E+03  0.269023E+03  0.286822E+03
 -0.255000E-02  0.500000E-04  0.346507E+03  0.907605E+01  0.368424E+24  0.171317E-01  0.300674E+03  0.272421E+03  0.287496E+03  0.152930E+04  0.980514E+00  0.313602E-05  0.150752E+09  0.277704E+32  0.000000E+00  0.000000E+00  0.000000E+00  0.000000E+00  0.100000E+01  0.300674E+03  0.272421E+03  0.287496E+03
 -0.245000E-02  0.500000E-04  0.329364E+03  0.470630E+01  0.362482E+24  0.168554E-01  0.301101E+03  0.272163E+03  0.288301E+03  0.150678E+04  0.931118E+00  0.318856E-05  0.147447E+09  0.267235E+32  0.000000E+00  0.000000E+00  0.000000E+00  0.000000E+00  0.100000E+01  0.301101E+03  0.272163E+03  0.288301E+03
 -0.235000E-02  0.500000E-04  0.320161E+03  0.570155E+01  0.351593E+24  0.163491E-01  0.304221E+03  0.277056E+03  0.289058E+03  0.147665E+04  0.900500E+00  0.329579E-05  0.143757E+09  0.252719E+32  0.000000E+00  0.000000E+00  0.000000E+00  0.000000E+00  0.100000E+01  0.304221E+03  0.277056E+03  0.289058E+03
 -0.225000E-02  0.500000E-04  0.317494E+03  0.602198E+01  0.337847E+24  0.157099E-01  0.304219E+03  0.277260E+03  0.288843E+03  0.141891E+04  0.893018E+00  0.342988E-05  0.138184E+09  0.233425E+32  0.000000E+00  0.000000E+00  0.000000E+00  0.000000E+00  0.100000E+01  0.304219E+03  0.277260E+03  0.288842E+03
 -0.215000E-02  0.500000E-04  0.307149E+03  0.313903E+01  0.333410E+24  0.155036E-01  0.301979E+03  0.276753E+03  0.289827E+03  0.138996E+04  0.867010E+00  0.346911E-05  0.135996E+09  0.226712E+32  0.000000E+00  0.000000E+00  0.000000E+00  0.000000E+00  0.100000E+01  0.301979E+03  0.276753E+03  0.289827E+03
 -0.205000E-02  0.500000E-04  0.295314E+03  0.403376E+01  0.333973E+24  0.155297E-01  0.304036E+03  0.282506E+03  0.290201E+03  0.140180E+04  0.830810E+00  0.346915E-05  0.137122E+09  0.228976E+32  0.000000E+00  0.000000E+00  0.000000E+00  0.000000E+00  0.100000E+01  0.304036E+03  0.282506E+03  0.290201E+03
 -0.195000E-02  0.500000E-04  0.280415E+03  0.446943E+01  0.336123E+24  0.156297E-01  0.306829E+03  0.283376E+03  0.290454E+03  0.142378E+04  0.785324E+00  0.345485E-05  0.137449E+09  0.230999E+32  0.000000E+00  0.000000E+00  0.000000E+00  0.000000E+00  0.100000E+01  0.306829E+03  0.283376E+03  0.290454E+03
 -0.185000E-02  0.500000E-04  0.274410E+03  0.508092E+01  0.324407E+24  0.150849E-01  0.306073E+03  0.285890E+03  0.290759E+03  0.137077E+04  0.769489E+00  0.357741E-05  0.133629E+09  0.216751E+32  0.000000E+00  0.000000E+00  0.000000E+00  0.000000E+00  0.100000E+01  0.306073E+03  0.285890E+03  0.290759E+03
 -0.175000E-02  0.500000E-04  0.270853E+03  0.145184E+01  0.311609E+24  0.144898E-01  0.306518E+03  0.286457E+03  0.291419E+03  0.131861E+04  0.758844E+00  0.372570E-05  0.128060E+09  0.199523E+32  0.000000E+00  0.000000E+00  0.000000E+00  0.000000E+00  0.100000E+01  0.306518E+03  0.286457E+03  0.291419E+03
 -0.165000E-02  0.500000E-04  0.263518E+03  0.455495E+01  0.309072E+24  0.143718E-01  0.303299E+03  0.284177E+03  0.291418E+03  0.129413E+04  0.742301E+00  0.374637E-05  0.126818E+09  0.195979E+32  0.000000E+00  0.000000E+00  0.000000E+00  0.000000E+00  0.100000E+01  0.303299E+03  0.284177E+03  0.291418E+03
 -0.155000E-02  0.500000E-04  0.257566E+03  0.151926E+01  0.305650E+24  0.142127E-01  0.305559E+03  0.288059E+03  0.291928E+03  0.128934E+04  0.722751E+00  0.379535E-05  0.125790E+09  0.192238E+32  0.000000E+00  0.000000E+00  0.000000E+00  0.000000E+00  0.100000E+01  0.305559E+03  0.288059E+03  0.291928E+03
 -0.145000E-02  0.500000E-04  0.249261E+03  0.253543E+01  0.305920E+24  0.142253E-01  0.303208E+03  0.286760E+03  0.292026E+03  0.128055E+04  0.702179E+00  0.378468E-05  0.125563E+09  0.192062E+32  0.000000E+00  0.000000E+00  0.000000E+00  0.000000E+00  0.100000E+01  0.303208E+03  0.286760E+03  0.292026E+03
 -0.135000E-02  0.500000E-04  0.238378E+03  0.461274E+01  0.308228E+24  0.143326E-01  0.306275E+03  0.288994E+03  0.292692E+03  0.130327E+04  0.668240E+00  0.376581E-05  0.126349E+09  0.194722E+32  0.000000E+00  0.000000E+00  0.000000E+00  0.000000E+00  0.100000E+01  0.306275E+03  0.288994E+03  0.292692E+03
 -0.125000E-02  0.500000E-04  0.229420E+03  0.235238E+01  0.304495E+24  0.141590E-01  0.304670E+03  0.289744E+03  0.293073E+03  0.128073E+04  0.644733E+00  0.380697E-05  0.124584E+09  0.189676E+32  0.000000E+00  0.000000E+00  0.000000E+00  0.000000E+00  0.100000E+01  0.304670E+03  0.289744E+03  0.293073E+03
 -0.115000E-02  0.500000E-04  0.227143E+03  0.350434E+01  0.296913E+24  0.138065E-01  0.308701E+03  0.291646E+03  0.293271E+03  0.126536E+04  0.634195E+00  0.391704E-05  0.121950E+09  0.181043E+32  0.000000E+00  0.000000E+00  0.000000E+00  0.000000E+00  0.100000E+01  0.308701E+03  0.291646E+03  0.293271E+03
 -0.105000E-02  0.500000E-04  0.222753E+03  0.145469E+01  0.292076E+24  0.135815E-01  0.308853E+03  0.293323E+03  0.293123E+03  0.124536E+04  0.621723E+00  0.398240E-05  0.119249E+09  0.174149E+32  0.000000E+00  0.000000E+00  0.000000E+00  0.000000E+00  0.100000E+01  0.308853E+03  0.293323E+03  0.293123E+03
 -0.950000E-03  0.500000E-04  0.222755E+03  0.269257E+01  0.290885E+24  0.135262E-01  0.306897E+03  0.291246E+03  0.293135E+03  0.123243E+04  0.623740E+00  0.399236E-05  0.119930E+09  0.174429E+32  0.259895E-03  0.313042E+03  0.333256E+03  0.290780E+03  0.999740E+00  0.306895E+03  0.291235E+03  0.293136E+03
 -0.850000E-03  0.500000E-04  0.211350E+03  0.138236E+01  0.298918E+24  0.138997E-01  0.305059E+03  0.294717E+03  0.292913E+03  0.125888E+04  0.593554E+00  0.387923E-05  0.123264E+09  0.184229E+32  0.192259E-02  0.343408E+03  0.393486E+03  0.288361E+03  0.998077E+00  0.304985E+03  0.294527E+03  0.292920E+03
 -0.750000E-03  0.500000E-04  0.208556E+03  0.373652E+01  0.292377E+24  0.135955E-01  0.306907E+03  0.295144E+03  0.293418E+03  0.123879E+04  0.584023E+00  0.397202E-05  0.120130E+09  0.175616E+32  0.605242E-02  0.314405E+03  0.278511E+03  0.297595E+03  0.993948E+00  0.306861E+03  0.295245E+03  0.293388E+03
 -0.650000E-03  0.500000E-04  0.206904E+03 -0.119200E+01  0.287804E+24  0.133829E-01  0.308539E+03  0.295744E+03  0.293541E+03  0.122590E+04  0.577778E+00  0.404049E-05  0.119302E+09  0.171678E+32  0.114167E-01  0.311864E+03  0.283124E+03  0.301171E+03  0.988583E+00  0.308501E+03  0.295890E+03  0.293426E+03
 -0.550000E-03  0.500000E-04  0.200911E+03  0.319261E+01  0.289301E+24  0.134525E-01  0.307950E+03  0.297106E+03  0.293325E+03  0.122992E+04  0.561642E+00  0.401766E-05  0.119696E+09  0.173141E+32  0.161775E-01  0.314246E+03  0.287433E+03  0.298885E+03  0.983822E+00  0.307846E+03  0.297265E+03  0.293213E+03
 -0.450000E-03  0.500000E-04  0.197040E+03  0.403529E+01  0.283267E+24  0.131719E-01  0.309176E+03  0.297253E+03  0.293123E+03  0.120907E+04  0.549773E+00  0.410732E-05  0.116754E+09  0.165363E+32  0.256036E-01  0.300915E+03  0.293177E+03  0.297616E+03  0.974396E+00  0.309393E+03  0.297360E+03  0.292983E+03
 -0.350000E-03  0.500000E-04  0.191178E+03  0.507332E+00  0.285308E+24  0.132668E-01  0.310670E+03  0.300549E+03  0.293685E+03  0.122366E+04  0.532024E+00  0.408286E-05  0.118361E+09  0.168846E+32  0.312965E-01  0.310554E+03  0.311259E+03  0.298260E+03  0.968703E+00  0.310673E+03  0.300203E+03  0.293510E+03
 -0.250000E-03  0.500000E-04  0.193167E+03 -0.276285E+00  0.278453E+24  0.129481E-01  0.311776E+03  0.300171E+03  0.294135E+03  0.119852E+04  0.536602E+00  0.418707E-05  0.115174E+09  0.160354E+32  0.420847E-01  0.316353E+03  0.313023E+03  0.299874E+03  0.957915E+00  0.311575E+03  0.299606E+03  0.293823E+03
 -0.150000E-03  0.500000E-04  0.187411E+03  0.138049E+01  0.279207E+24  0.129831E-01  0.308373E+03  0.295182E+03  0.294321E+03  0.118864E+04  0.523491E+00  0.416432E-05  0.115299E+09  0.160961E+32  0.518389E-01  0.301951E+03  0.296410E+03  0.302434E+03  0.948161E+00  0.308724E+03  0.295115E+03  0.293720E+03
 -0.499999E-04  0.500000E-04  0.185478E+03  0.299194E+01  0.276778E+24  0.128702E-01  0.305513E+03  0.293493E+03  0.294749E+03  0.116738E+04  0.520565E+00  0.419109E-05  0.113668E+09  0.157304E+32  0.606373E-01  0.299163E+03  0.300174E+03  0.300438E+03  0.939363E+00  0.305923E+03  0.293062E+03  0.294293E+03
  0.499999E-04  0.500000E-04  0.181504E+03 -0.151093E+01  0.276334E+24  0.128495E-01  0.308845E+03  0.297234E+03  0.293697E+03  0.117821E+04  0.506608E+00  0.420924E-05  0.113775E+09  0.157199E+32  0.621306E-01  0.306377E+03  0.306114E+03  0.299204E+03  0.937869E+00  0.309008E+03  0.296646E+03  0.293247E+03
  0.150000E-03  0.500000E-04  0.186525E+03 -0.312053E+01  0.269589E+24  0.125359E-01  0.308418E+03  0.298643E+03  0.293595E+03  0.114786E+04  0.521036E+00  0.431307E-05  0.110720E+09  0.149245E+32  0.688185E-01  0.310380E+03  0.304390E+03  0.298488E+03  0.931181E+00  0.308273E+03  0.298218E+03  0.293159E+03
  0.250000E-03  0.500000E-04  0.189429E+03  0.138323E+01  0.270548E+24  0.125805E-01  0.310871E+03  0.298767E+03  0.294000E+03  0.116111E+04  0.526999E+00  0.430629E-05  0.112280E+09  0.151886E+32  0.693325E-01  0.311764E+03  0.302148E+03  0.298034E+03  0.930668E+00  0.310804E+03  0.298515E+03  0.293649E+03
  0.350000E-03  0.500000E-04  0.182549E+03  0.918402E+00  0.277907E+24  0.129227E-01  0.308059E+03  0.297539E+03  0.293701E+03  0.118190E+04  0.510163E+00  0.418275E-05  0.114670E+09  0.159337E+32  0.646756E-01  0.306432E+03  0.305452E+03  0.298600E+03  0.935324E+00  0.308171E+03  0.296992E+03  0.293292E+03
  0.450000E-03  0.500000E-04  0.181284E+03  0.430733E+01  0.273950E+24  0.127387E-01  0.310085E+03  0.299508E+03  0.294328E+03  0.117274E+04  0.505106E+00  0.425011E-05  0.112899E+09  0.154643E+32  0.724576E-01  0.316479E+03  0.297342E+03  0.298301E+03  0.927542E+00  0.309585E+03  0.299678E+03  0.293966E+03
  0.550000E-03  0.500000E-04  0.177788E+03 -0.197339E+01  0.272128E+24  0.126540E-01  0.308728E+03  0.298203E+03  0.294555E+03  0.115984E+04  0.496343E+00  0.427389E-05  0.112845E+09  0.153541E+32  0.721428E-01  0.310465E+03  0.300545E+03  0.298449E+03  0.927857E+00  0.308592E+03  0.298021E+03  0.294203E+03
  0.650000E-03  0.500000E-04  0.172739E+03  0.986503E+00  0.274616E+24  0.127696E-01  0.309660E+03  0.299979E+03  0.294975E+03  0.117398E+04  0.481500E+00  0.423836E-05  0.114187E+09  0.156788E+32  0.758964E-01  0.308880E+03  0.301299E+03  0.297559E+03  0.924104E+00  0.309724E+03  0.299870E+03  0.294741E+03
  0.750000E-03  0.500000E-04  0.170744E+03  0.263637E+01  0.268304E+24  0.124761E-01  0.307643E+03  0.300372E+03  0.295098E+03  0.113952E+04  0.477545E+00  0.433099E-05  0.110118E+09  0.147726E+32  0.817388E-01  0.309073E+03  0.294512E+03  0.297844E+03  0.918261E+00  0.307516E+03  0.300893E+03  0.294826E+03
  0.850000E-03  0.500000E-04  0.174039E+03  0.159097E+01  0.261975E+24  0.121819E-01  0.306250E+03  0.297016E+03  0.296217E+03  0.110761E+04  0.487828E+00  0.443059E-05  0.107069E+09  0.140247E+32  0.845498E-01  0.306242E+03  0.297481E+03  0.298079E+03  0.915450E+00  0.306251E+03  0.296973E+03  0.296032E+03
  0.950000E-03  0.500000E-04  0.171420E+03 -0.439900E+00  0.258711E+24  0.120300E-01  0.308168E+03  0.300896E+03  0.295928E+03  0.110066E+04  0.478972E+00  0.449351E-05  0.107406E+09  0.138935E+32  0.847238E-01  0.307258E+03  0.292939E+03  0.296995E+03  0.915276E+00  0.308253E+03  0.301633E+03  0.295826E+03
  0.105000E-02  0.500000E-04  0.164350E+03  0.237215E+01  0.264085E+24  0.122800E-01  0.309273E+03  0.303041E+03  0.295599E+03  0.112755E+04  0.458443E+00  0.440600E-05  0.109767E+09  0.144940E+32  0.902676E-01  0.308415E+03  0.295451E+03  0.300311E+03  0.909732E+00  0.309359E+03  0.303795E+03  0.295037E+03
  0.115000E-02  0.500000E-04  0.163683E+03 -0.396458E+01  0.265413E+24  0.123417E-01  0.311433E+03  0.306812E+03  0.296280E+03  0.114113E+04  0.455081E+00  0.439158E-05  0.110234E+09  0.146288E+32  0.856727E-01  0.315118E+03  0.308359E+03  0.302370E+03  0.914327E+00  0.311087E+03  0.306667E+03  0.295557E+03
  0.125000E-02  0.500000E-04  0.162650E+03  0.197846E+01  0.265782E+24  0.123589E-01  0.310317E+03  0.300621E+03  0.295298E+03  0.113862E+04  0.452924E+00  0.438156E-05  0.109826E+09  0.145949E+32  0.894938E-01  0.309304E+03  0.305354E+03  0.300317E+03  0.910506E+00  0.310417E+03  0.300156E+03  0.294698E+03
  0.135000E-02  0.500000E-04  0.154484E+03  0.137932E+01  0.269651E+24  0.125388E-01  0.306762E+03  0.302731E+03  0.295635E+03  0.114196E+04  0.432655E+00  0.430627E-05  0.111734E+09  0.150646E+32  0.895104E-01  0.303668E+03  0.302032E+03  0.298142E+03  0.910490E+00  0.307066E+03  0.302799E+03  0.295363E+03
  0.145000E-02  0.500000E-04  0.149984E+03  0.327872E+01  0.266482E+24  0.123914E-01  0.307793E+03  0.298528E+03  0.295266E+03  0.113234E+04  0.419430E+00  0.436114E-05  0.110829E+09  0.147670E+32  0.869944E-01  0.306198E+03  0.292148E+03  0.299249E+03  0.913006E+00  0.307945E+03  0.299136E+03  0.294823E+03
  0.155000E-02  0.500000E-04  0.145131E+03  0.357964E+00  0.265715E+24  0.123557E-01  0.302292E+03  0.298898E+03  0.294807E+03  0.110890E+04  0.409440E+00  0.435404E-05  0.109531E+09  0.145521E+32  0.781491E-01  0.307918E+03  0.311014E+03  0.299712E+03  0.921851E+00  0.301815E+03  0.297871E+03  0.294305E+03
  0.165000E-02  0.500000E-04  0.150637E+03  0.207495E+01  0.253816E+24  0.118025E-01  0.308089E+03  0.301623E+03  0.294857E+03  0.107955E+04  0.420993E+00  0.457986E-05  0.104559E+09  0.132694E+32  0.645014E-01  0.305915E+03  0.302147E+03  0.299257E+03  0.935499E+00  0.308239E+03  0.301587E+03  0.294499E+03
  0.175000E-02  0.500000E-04  0.153413E+03 -0.135441E+01  0.255219E+24  0.118677E-01  0.308321E+03  0.299964E+03  0.295380E+03  0.108634E+04  0.428567E+00  0.455554E-05  0.105614E+09  0.134773E+32  0.580827E-01  0.304427E+03  0.295552E+03  0.299736E+03  0.941917E+00  0.308562E+03  0.300236E+03  0.295064E+03
  0.185000E-02  0.500000E-04  0.150490E+03 -0.830075E+00  0.257238E+24  0.119616E-01  0.309532E+03  0.300600E+03  0.294435E+03  0.109923E+04  0.419568E+00  0.452423E-05  0.106359E+09  0.136797E+32  0.511068E-01  0.306664E+03  0.296764E+03  0.300735E+03  0.948893E+00  0.309687E+03  0.300807E+03  0.294006E+03
  0.195000E-02  0.500000E-04  0.150557E+03 -0.151796E-01  0.256658E+24  0.119346E-01  0.308460E+03  0.299469E+03  0.295217E+03  0.109296E+04  0.420476E+00  0.453051E-05  0.105955E+09  0.135971E+32  0.422084E-01  0.310793E+03  0.302459E+03  0.299586E+03  0.957792E+00  0.308357E+03  0.299337E+03  0.294991E+03
  0.205000E-02  0.500000E-04  0.148925E+03 -0.125889E+01  0.255041E+24  0.118594E-01  0.305723E+03  0.297305E+03  0.295575E+03  0.107643E+04  0.417791E+00  0.454908E-05  0.105385E+09  0.134388E+32  0.409857E-01  0.298165E+03  0.301670E+03  0.301156E+03  0.959014E+00  0.306046E+03  0.297118E+03  0.295282E+03
  0.215000E-02  0.500000E-04  0.145221E+03  0.206013E+01  0.261005E+24  0.121367E-01  0.303216E+03  0.298395E+03  0.295561E+03  0.109257E+04  0.409107E+00  0.443600E-05  0.106989E+09  0.139624E+32  0.366565E-01  0.299709E+03  0.315528E+03  0.301989E+03  0.963344E+00  0.303349E+03  0.297743E+03  0.295252E+03
  0.225000E-02  0.500000E-04  0.143577E+03  0.411982E+01  0.253548E+24  0.117900E-01  0.305605E+03  0.296385E+03  0.295280E+03  0.106972E+04  0.403019E+00  0.457545E-05  0.104133E+09  0.132014E+32  0.457990E-01  0.307811E+03  0.292693E+03  0.300324E+03  0.954201E+00  0.305499E+03  0.296563E+03  0.294989E+03
  0.235000E-02  0.500000E-04  0.145753E+03 -0.570926E+00  0.248735E+24  0.115662E-01  0.305473E+03  0.299963E+03  0.294669E+03  0.104896E+04  0.409049E+00  0.466346E-05  0.102366E+09  0.127310E+32  0.457227E-01  0.300596E+03  0.303957E+03  0.299281E+03  0.954277E+00  0.305706E+03  0.299772E+03  0.294407E+03
  0.245000E-02  0.500000E-04  0.144960E+03 -0.126747E+01  0.253986E+24  0.118104E-01  0.305350E+03  0.297078E+03  0.295053E+03  0.107067E+04  0.406919E+00  0.456659E-05  0.105138E+09  0.133519E+32  0.358615E-01  0.302121E+03  0.294394E+03  0.298902E+03  0.964138E+00  0.305470E+03  0.297178E+03  0.294888E+03
  0.255000E-02  0.500000E-04  0.139978E+03  0.615178E+00  0.254568E+24  0.118374E-01  0.306278E+03  0.299649E+03  0.295529E+03  0.107639E+04  0.392327E+00  0.455961E-05  0.105338E+09  0.134079E+32  0.374377E-01  0.303871E+03  0.303024E+03  0.300322E+03  0.962562E+00  0.306371E+03  0.299518E+03  0.295307E+03
  0.265000E-02  0.500000E-04  0.140840E+03  0.140206E+01  0.250686E+24  0.116569E-01  0.304082E+03  0.298902E+03  0.295320E+03  0.105237E+04  0.396180E+00  0.462188E-05  0.103543E+09  0.129783E+32  0.393215E-01  0.313617E+03  0.315945E+03  0.298580E+03  0.960679E+00  0.303692E+03  0.298204E+03  0.295169E+03
  0.275000E-02  0.500000E-04  0.138706E+03 -0.191600E+01  0.251771E+24  0.117073E-01  0.306015E+03  0.298735E+03  0.295338E+03  0.106365E+04  0.388960E+00  0.460928E-05  0.104447E+09  0.131483E+32  0.365330E-01  0.307915E+03  0.279265E+03  0.297455E+03  0.963467E+00  0.305943E+03  0.299473E+03  0.295251E+03
  0.285000E-02  0.500000E-04  0.141156E+03  0.115948E+01  0.241673E+24  0.112378E-01  0.306919E+03  0.298722E+03  0.295439E+03  0.102400E+04  0.395225E+00  0.480541E-05  0.100291E+09  0.121187E+32  0.366605E-01  0.314660E+03  0.295776E+03  0.298292E+03  0.963340E+00  0.306624E+03  0.298834E+03  0.295318E+03
  0.295000E-02  0.500000E-04  0.142303E+03 -0.204445E+01  0.247735E+24  0.115197E-01  0.307394E+03  0.301669E+03  0.295478E+03  0.105131E+04  0.398155E+00  0.468964E-05  0.102783E+09  0.127315E+32  0.349242E-01  0.303867E+03  0.305757E+03  0.298952E+03  0.965076E+00  0.307521E+03  0.301521E+03  0.295336E+03
  0.305000E-02  0.500000E-04  0.138965E+03 -0.517739E+00  0.249710E+24  0.116115E-01  0.307638E+03  0.306018E+03  0.295212E+03  0.106053E+04  0.388623E+00  0.465346E-05  0.103221E+09  0.128876E+32  0.332688E-01  0.299832E+03  0.292969E+03  0.298168E+03  0.966731E+00  0.307906E+03  0.306467E+03  0.295098E+03
  0.315000E-02  0.500000E-04  0.134215E+03  0.286060E+01  0.246895E+24  0.114806E-01  0.304822E+03  0.296981E+03  0.295357E+03  0.103898E+04  0.377152E+00  0.469571E-05  0.101727E+09  0.125579E+32  0.313402E-01  0.301662E+03  0.280504E+03  0.300557E+03  0.968660E+00  0.304924E+03  0.297514E+03  0.295154E+03
  0.325000E-02  0.500000E-04  0.132657E+03  0.971846E+00  0.252407E+24  0.117369E-01  0.306257E+03  0.304199E+03  0.295514E+03  0.106718E+04  0.371827E+00  0.459857E-05  0.104829E+09  0.132298E+32  0.299848E-01  0.313247E+03  0.303950E+03  0.299739E+03  0.970015E+00  0.306041E+03  0.304207E+03  0.295362E+03
  0.335000E-02  0.500000E-04  0.134708E+03  0.656874E+00  0.245078E+24  0.113961E-01  0.309932E+03  0.303898E+03  0.295840E+03  0.104862E+04  0.375325E+00  0.475024E-05  0.102102E+09  0.125114E+32  0.302360E-01  0.310583E+03  0.310345E+03  0.298989E+03  0.969764E+00  0.309912E+03  0.303697E+03  0.295730E+03
  0.345000E-02  0.500000E-04  0.130957E+03  0.225728E+01  0.249097E+24  0.115830E-01  0.304961E+03  0.298977E+03  0.296436E+03  0.104873E+04  0.367883E+00  0.465472E-05  0.102769E+09  0.127997E+32  0.303017E-01  0.317320E+03  0.303230E+03  0.297906E+03  0.969698E+00  0.304575E+03  0.298845E+03  0.296387E+03
  0.355000E-02  0.500000E-04  0.127896E+03  0.268296E+01  0.247234E+24  0.114964E-01  0.305787E+03  0.302204E+03  0.296555E+03  0.104370E+04  0.358827E+00  0.469298E-05  0.102262E+09  0.126414E+32  0.297004E-01  0.313287E+03  0.304429E+03  0.296614E+03  0.970300E+00  0.305558E+03  0.302136E+03  0.296553E+03
  0.365000E-02  0.500000E-04  0.130979E+03 -0.209964E+01  0.240255E+24  0.111718E-01  0.310485E+03  0.301576E+03  0.295384E+03  0.102982E+04  0.364652E+00  0.484776E-05  0.991181E+08  0.119068E+32  0.258433E-01  0.310239E+03  0.304393E+03  0.299957E+03  0.974157E+00  0.310492E+03  0.301501E+03  0.295241E+03
  0.375000E-02  0.500000E-04  0.132714E+03 -0.364998E+00  0.243304E+24  0.113136E-01  0.307045E+03  0.302648E+03  0.295647E+03  0.103133E+04  0.371498E+00  0.477369E-05  0.100862E+09  0.122701E+32  0.285460E-01  0.301320E+03  0.294211E+03  0.301337E+03  0.971454E+00  0.307213E+03  0.302895E+03  0.295442E+03
  0.385000E-02  0.500000E-04  0.132540E+03 -0.439065E+01  0.246752E+24  0.114740E-01  0.303858E+03  0.299667E+03  0.295604E+03  0.103509E+04  0.373158E+00  0.469472E-05  0.102283E+09  0.126192E+32  0.305386E-01  0.306560E+03  0.304223E+03  0.300141E+03  0.969461E+00  0.303773E+03  0.299523E+03  0.295435E+03
  0.395000E-02  0.500000E-04  0.127102E+03  0.186818E+01  0.253310E+24  0.117789E-01  0.304581E+03  0.299749E+03  0.297069E+03  0.106513E+04  0.357265E+00  0.457590E-05  0.104623E+09  0.132511E+32  0.322378E-01  0.298527E+03  0.301335E+03  0.300150E+03  0.967762E+00  0.304782E+03  0.299696E+03  0.296955E+03
  0.405000E-02  0.500000E-04  0.127617E+03  0.267362E+01  0.244319E+24  0.113609E-01  0.309331E+03  0.301075E+03  0.297066E+03  0.104335E+04  0.355986E+00  0.476266E-05  0.101496E+09  0.123987E+32  0.297367E-01  0.317238E+03  0.299432E+03  0.298636E+03  0.970263E+00  0.309088E+03  0.301125E+03  0.297015E+03
  0.415000E-02  0.500000E-04  0.123870E+03  0.116729E+01  0.245378E+24  0.114101E-01  0.307705E+03  0.301644E+03  0.296447E+03  0.104236E+04  0.346387E+00  0.473588E-05  0.101004E+09  0.123920E+32  0.304158E-01  0.315150E+03  0.297171E+03  0.303109E+03  0.969584E+00  0.307471E+03  0.301784E+03  0.296181E+03
  0.425000E-02  0.500000E-04  0.124119E+03 -0.285549E+01  0.244701E+24  0.113786E-01  0.302564E+03  0.294496E+03  0.296670E+03  0.102212E+04  0.350095E+00  0.472902E-05  0.101371E+09  0.124028E+32  0.287864E-01  0.303922E+03  0.289221E+03  0.301430E+03  0.971214E+00  0.302524E+03  0.294653E+03  0.296503E+03
  0.435000E-02  0.500000E-04  0.121319E+03  0.448833E+01  0.240959E+24  0.112046E-01  0.304927E+03  0.300538E+03  0.296171E+03  0.101435E+04  0.341011E+00  0.481178E-05  0.990965E+08  0.119391E+32  0.245330E-01  0.289962E+03  0.297294E+03  0.298453E+03  0.975467E+00  0.305304E+03  0.300619E+03  0.296108E+03
  0.445000E-02  0.500000E-04  0.121002E+03 -0.323439E+01  0.240674E+24  0.111913E-01  0.304466E+03  0.301348E+03  0.296632E+03  0.101162E+04  0.340266E+00  0.481569E-05  0.994968E+08  0.119731E+32  0.255016E-01  0.307643E+03  0.290719E+03  0.297595E+03  0.974498E+00  0.304383E+03  0.301626E+03  0.296606E+03
  0.455000E-02  0.500000E-04  0.122891E+03  0.137224E+01  0.241177E+24  0.112147E-01  0.307363E+03  0.304078E+03  0.297000E+03  0.102338E+04  0.343846E+00  0.481703E-05  0.998198E+08  0.120371E+32  0.293724E-01  0.304257E+03  0.291958E+03  0.296583E+03  0.970628E+00  0.307457E+03  0.304445E+03  0.297012E+03
  0.465000E-02  0.500000E-04  0.124456E+03  0.561211E-01  0.236948E+24  0.110181E-01  0.313164E+03  0.304245E+03  0.296569E+03  0.102441E+04  0.344961E+00  0.492599E-05  0.989001E+08  0.117171E+32  0.332409E-01  0.310375E+03  0.299039E+03  0.295947E+03  0.966759E+00  0.313260E+03  0.304423E+03  0.296590E+03
  0.475000E-02  0.500000E-04  0.126238E+03  0.725819E+00  0.238207E+24  0.110766E-01  0.314815E+03  0.304215E+03  0.296249E+03  0.103528E+04  0.348987E+00  0.490639E-05  0.993835E+08  0.118369E+32  0.329829E-01  0.318225E+03  0.284814E+03  0.293092E+03  0.967017E+00  0.314699E+03  0.304877E+03  0.296344E+03
  0.485000E-02  0.500000E-04  0.125851E+03  0.537285E+00  0.239751E+24  0.111484E-01  0.310170E+03  0.307424E+03  0.296143E+03  0.102662E+04  0.350512E+00  0.485670E-05  0.992456E+08  0.118971E+32  0.307996E-01  0.303711E+03  0.301362E+03  0.292705E+03  0.969200E+00  0.310375E+03  0.307616E+03  0.296239E+03
  0.495000E-02  0.500000E-04  0.120540E+03  0.154458E+01  0.242983E+24  0.112987E-01  0.309099E+03  0.307541E+03  0.295909E+03  0.103687E+04  0.336325E+00  0.478797E-05  0.101164E+09  0.122905E+32  0.286644E-01  0.306469E+03  0.311790E+03  0.296705E+03  0.971336E+00  0.309177E+03  0.307415E+03  0.295885E+03
  0.505000E-02  0.500000E-04  0.118559E+03 -0.126424E+01  0.242871E+24  0.112935E-01  0.307304E+03  0.302282E+03  0.295634E+03  0.103037E+04  0.331755E+00  0.478320E-05  0.100602E+09  0.122166E+32  0.270059E-01  0.300279E+03  0.293812E+03  0.300332E+03  0.972994E+00  0.307499E+03  0.302517E+03  0.295480E+03
  0.515000E-02  0.500000E-04  0.115130E+03  0.290488E+01  0.241050E+24  0.112088E-01  0.306441E+03  0.299862E+03  0.296008E+03  0.101977E+04  0.322697E+00  0.481595E-05  0.991953E+08  0.119555E+32  0.307208E-01  0.297048E+03  0.292492E+03  0.302643E+03  0.969279E+00  0.306739E+03  0.300095E+03  0.295741E+03
  0.525000E-02  0.500000E-04  0.113216E+03 -0.934956E+00  0.236544E+24  0.109993E-01  0.310141E+03  0.307590E+03  0.295668E+03  0.101279E+04  0.315344E+00  0.492241E-05  0.981848E+08  0.116125E+32  0.329899E-01  0.323919E+03  0.315280E+03  0.300515E+03  0.967010E+00  0.309671E+03  0.307328E+03  0.295471E+03
  0.535000E-02  0.500000E-04  0.117768E+03 -0.774542E+00  0.234053E+24  0.108835E-01  0.307423E+03  0.303065E+03  0.296022E+03  0.993346E+03  0.329465E+00  0.496389E-05  0.962137E+08  0.112596E+32  0.262199E-01  0.307463E+03  0.315072E+03  0.301106E+03  0.973780E+00  0.307422E+03  0.302741E+03  0.295858E+03
  0.545000E-02  0.500000E-04  0.115533E+03  0.282292E+01  0.238146E+24  0.110738E-01  0.304574E+03  0.302462E+03  0.296010E+03  0.100135E+04  0.324810E+00  0.486724E-05  0.979536E+08  0.116636E+32  0.230123E-01  0.294605E+03  0.287563E+03  0.299266E+03  0.976988E+00  0.304809E+03  0.302813E+03  0.295924E+03