TITLE=" Box                                                                     /                                                                         "
VARIABLES="X",        "Y",      "Vx   ",      "Vy   ",      "Nden ",      "Rho  ",      "Ttrn ",      "Trot ",      "Tvib ",      "Press",      "Ma   ",      "Lambd",      "Relac",      "Coll ",      "frac1",      "Ttrn1",      "Trot1",      "Tvib1",      "frac2",      "Ttrn2",      "Trot2",      "Tvib2"
ZONE T="DSMC,BG", I=  200, J=   50, F=POINT
 -0.395000E-02  0.500000E-04  0.803961E+03  0.246938E+02  0.128317E+25  0.596674E-01  0.992764E+02  0.835244E+02  0.232990E+03  0.175865E+04  0.395963E+01  0.682543E-06  0.382643E+09  0.245498E+33  0.000000E+00  0.000000E+00  0.000000E+00  0.000000E+00  0.100000E+01  0.992764E+02  0.835244E+02  0.232990E+03
 -0.385000E-02  0.500000E-04  0.742037E+03  0.669128E+02  0.139120E+25  0.646906E-01  0.144762E+03  0.115928E+03  0.246116E+03  0.278031E+04  0.303735E+01  0.691797E-06  0.476662E+09  0.331565E+33  0.000000E+00  0.000000E+00  0.000000E+00  0.000000E+00  0.100000E+01  0.144762E+03  0.115928E+03  0.246116E+03
 -0.375000E-02  0.500000E-04  0.715210E+03  0.888769E+02  0.138471E+25  0.643890E-01  0.159433E+03  0.129569E+03  0.249961E+03  0.304779E+04  0.279970E+01  0.712014E-06  0.528801E+09  0.366118E+33  0.000000E+00  0.000000E+00  0.000000E+00  0.000000E+00  0.100000E+01  0.159433E+03  0.129569E+03  0.249961E+03
 -0.365000E-02  0.500000E-04  0.679879E+03  0.742698E+02  0.112006E+25  0.520827E-01  0.182133E+03  0.146574E+03  0.256483E+03  0.281630E+04  0.248571E+01  0.910038E-06  0.460858E+09  0.258094E+33  0.000000E+00  0.000000E+00  0.000000E+00  0.000000E+00  0.100000E+01  0.182133E+03  0.146574E+03  0.256483E+03
 -0.355000E-02  0.500000E-04  0.629607E+03  0.546417E+02  0.878388E+24  0.408450E-01  0.213072E+03  0.170154E+03  0.263586E+03  0.258381E+04  0.212361E+01  0.120683E-05  0.362302E+09  0.159121E+33  0.000000E+00  0.000000E+00  0.000000E+00  0.000000E+00  0.100000E+01  0.213072E+03  0.170154E+03  0.263586E+03
 -0.345000E-02  0.500000E-04  0.584409E+03  0.410141E+02  0.721077E+24  0.335301E-01  0.235072E+03  0.188943E+03  0.269643E+03  0.234009E+04  0.187423E+01  0.150668E-05  0.299987E+09  0.108157E+33  0.000000E+00  0.000000E+00  0.000000E+00  0.000000E+00  0.100000E+01  0.235072E+03  0.188943E+03  0.269643E+03
 -0.335000E-02  0.500000E-04  0.541647E+03  0.301726E+02  0.618156E+24  0.287443E-01  0.253889E+03  0.207365E+03  0.274089E+03  0.216667E+04  0.166996E+01  0.179170E-05  0.256448E+09  0.792623E+32  0.000000E+00  0.000000E+00  0.000000E+00  0.000000E+00  0.100000E+01  0.253889E+03  0.207365E+03  0.274089E+03
 -0.325000E-02  0.500000E-04  0.499477E+03  0.241204E+02  0.553050E+24  0.257168E-01  0.269016E+03  0.225669E+03  0.277691E+03  0.205396E+04  0.149545E+01  0.203181E-05  0.227553E+09  0.629241E+32  0.000000E+00  0.000000E+00  0.000000E+00  0.000000E+00  0.100000E+01  0.269016E+03  0.225669E+03  0.277691E+03
 -0.315000E-02  0.500000E-04  0.465815E+03  0.183345E+02  0.501621E+24  0.233254E-01  0.279212E+03  0.237309E+03  0.280289E+03  0.193356E+04  0.136843E+01  0.226105E-05  0.206351E+09  0.517550E+32  0.000000E+00  0.000000E+00  0.000000E+00  0.000000E+00  0.100000E+01  0.279212E+03  0.237309E+03  0.280289E+03
 -0.305000E-02  0.500000E-04  0.442879E+03  0.124062E+02  0.459647E+24  0.213736E-01  0.283285E+03  0.243442E+03  0.282271E+03  0.179762E+04  0.129117E+01  0.247648E-05  0.186230E+09  0.428001E+32  0.000000E+00  0.000000E+00  0.000000E+00  0.000000E+00  0.100000E+01  0.283285E+03  0.243442E+03  0.282271E+03
 -0.295000E-02  0.500000E-04  0.421897E+03  0.110521E+02  0.434641E+24  0.202108E-01  0.287891E+03  0.251595E+03  0.283438E+03  0.172746E+04  0.122006E+01  0.262954E-05  0.175649E+09  0.381722E+32  0.000000E+00  0.000000E+00  0.000000E+00  0.000000E+00  0.100000E+01  0.287891E+03  0.251595E+03  0.283438E+03
 -0.285000E-02  0.500000E-04  0.397704E+03  0.102495E+02  0.420585E+24  0.195572E-01  0.292561E+03  0.256049E+03  0.284962E+03  0.169871E+04  0.114087E+01  0.272837E-05  0.170786E+09  0.359150E+32  0.000000E+00  0.000000E+00  0.000000E+00  0.000000E+00  0.100000E+01  0.292561E+03  0.256049E+03  0.284962E+03
 -0.275000E-02  0.500000E-04  0.373970E+03  0.129718E+02  0.404554E+24  0.188118E-01  0.298649E+03  0.265299E+03  0.286315E+03  0.166796E+04  0.106208E+01  0.285113E-05  0.164385E+09  0.332513E+32  0.000000E+00  0.000000E+00  0.000000E+00  0.000000E+00  0.100000E+01  0.298649E+03  0.265299E+03  0.286315E+03
 -0.265000E-02  0.500000E-04  0.357120E+03  0.900984E+01  0.385392E+24  0.179207E-01  0.299946E+03  0.268151E+03  0.286911E+03  0.159586E+04  0.101175E+01  0.299613E-05  0.156960E+09  0.302457E+32  0.000000E+00  0.000000E+00  0.000000E+00  0.000000E+00  0.100000E+01  0.299946E+03  0.268151E+03  0.286911E+03
 -0.255000E-02  0.500000E-04  0.347952E+03  0.606440E+01  0.372772E+24  0.173339E-01  0.299488E+03  0.270962E+03  0.287444E+03  0.154124E+04  0.986361E+00  0.309638E-05  0.151573E+09  0.282511E+32  0.000000E+00  0.000000E+00  0.000000E+00  0.000000E+00  0.100000E+01  0.299488E+03  0.270962E+03  0.287444E+03
 -0.245000E-02  0.500000E-04  0.338769E+03  0.582979E+01  0.358222E+24  0.166573E-01  0.303949E+03  0.273965E+03  0.287869E+03  0.150315E+04  0.953251E+00  0.323408E-05  0.145600E+09  0.260786E+32  0.000000E+00  0.000000E+00  0.000000E+00  0.000000E+00  0.100000E+01  0.303949E+03  0.273965E+03  0.287870E+03
 -0.235000E-02  0.500000E-04  0.315470E+03  0.947107E+01  0.353709E+24  0.164475E-01  0.307972E+03  0.279453E+03  0.288898E+03  0.150386E+04  0.882143E+00  0.328613E-05  0.144985E+09  0.256413E+32  0.000000E+00  0.000000E+00  0.000000E+00  0.000000E+00  0.100000E+01  0.307972E+03  0.279453E+03  0.288898E+03
 -0.225000E-02  0.500000E-04  0.310670E+03  0.418626E+01  0.337385E+24  0.156884E-01  0.305769E+03  0.281503E+03  0.289227E+03  0.142419E+04  0.871531E+00  0.343895E-05  0.138708E+09  0.233990E+32  0.000000E+00  0.000000E+00  0.000000E+00  0.000000E+00  0.100000E+01  0.305769E+03  0.281503E+03  0.289227E+03
 -0.215000E-02  0.500000E-04  0.299179E+03  0.345855E+01  0.337058E+24  0.156732E-01  0.307736E+03  0.281172E+03  0.289392E+03  0.143196E+04  0.836589E+00  0.344780E-05  0.138766E+09  0.233862E+32  0.000000E+00  0.000000E+00  0.000000E+00  0.000000E+00  0.100000E+01  0.307736E+03  0.281172E+03  0.289392E+03
 -0.205000E-02  0.500000E-04  0.291471E+03  0.222604E+01  0.330243E+24  0.153563E-01  0.305073E+03  0.282843E+03  0.289780E+03  0.139087E+04  0.818551E+00  0.351132E-05  0.135867E+09  0.224346E+32  0.000000E+00  0.000000E+00  0.000000E+00  0.000000E+00  0.100000E+01  0.305073E+03  0.282843E+03  0.289780E+03
 -0.195000E-02  0.500000E-04  0.273017E+03  0.628642E+01  0.335367E+24  0.155946E-01  0.303889E+03  0.282947E+03  0.290558E+03  0.140697E+04  0.768402E+00  0.345431E-05  0.138060E+09  0.231504E+32  0.000000E+00  0.000000E+00  0.000000E+00  0.000000E+00  0.100000E+01  0.303889E+03  0.282947E+03  0.290558E+03
 -0.185000E-02  0.500000E-04  0.266688E+03  0.444379E+01  0.323775E+24  0.150555E-01  0.304450E+03  0.286203E+03  0.291002E+03  0.136084E+04  0.749800E+00  0.357964E-05  0.132877E+09  0.215111E+32  0.000000E+00  0.000000E+00  0.000000E+00  0.000000E+00  0.100000E+01  0.304450E+03  0.286203E+03  0.291002E+03
 -0.175000E-02  0.500000E-04  0.268178E+03 -0.554239E+00  0.308888E+24  0.143633E-01  0.305256E+03  0.287026E+03  0.290984E+03  0.130171E+04  0.752890E+00  0.375463E-05  0.126273E+09  0.195022E+32  0.000000E+00  0.000000E+00  0.000000E+00  0.000000E+00  0.100000E+01  0.305256E+03  0.287026E+03  0.290984E+03
 -0.165000E-02  0.500000E-04  0.254950E+03  0.346854E+01  0.316299E+24  0.147079E-01  0.306503E+03  0.289760E+03  0.290361E+03  0.133839E+04  0.714361E+00  0.367041E-05  0.130101E+09  0.205754E+32  0.000000E+00  0.000000E+00  0.000000E+00  0.000000E+00  0.100000E+01  0.306503E+03  0.289760E+03  0.290361E+03
 -0.155000E-02  0.500000E-04  0.245783E+03  0.342797E+01  0.314190E+24  0.146098E-01  0.307639E+03  0.290683E+03  0.291476E+03  0.133439E+04  0.687408E+00  0.369846E-05  0.128973E+09  0.202610E+32  0.000000E+00  0.000000E+00  0.000000E+00  0.000000E+00  0.100000E+01  0.307639E+03  0.290683E+03  0.291476E+03
 -0.145000E-02  0.500000E-04  0.246417E+03  0.205460E+01  0.302099E+24  0.140476E-01  0.305927E+03  0.288485E+03  0.292048E+03  0.127590E+04  0.691061E+00  0.384112E-05  0.124498E+09  0.188054E+32  0.000000E+00  0.000000E+00  0.000000E+00  0.000000E+00  0.100000E+01  0.305927E+03  0.288485E+03  0.292048E+03
 -0.135000E-02  0.500000E-04  0.239761E+03  0.242312E+01  0.299164E+24  0.139111E-01  0.310310E+03  0.293140E+03  0.292519E+03  0.128161E+04  0.667641E+00  0.389262E-05  0.123216E+09  0.184309E+32  0.000000E+00  0.000000E+00  0.000000E+00  0.000000E+00  0.100000E+01  0.310310E+03  0.293140E+03  0.292519E+03
 -0.125000E-02  0.500000E-04  0.236799E+03  0.252181E+01  0.296083E+24  0.137678E-01  0.308967E+03  0.290651E+03  0.292474E+03  0.126292E+04  0.660829E+00  0.392887E-05  0.121328E+09  0.179616E+32  0.000000E+00  0.000000E+00  0.000000E+00  0.000000E+00  0.100000E+01  0.308967E+03  0.290651E+03  0.292474E+03
 -0.115000E-02  0.500000E-04  0.233494E+03 -0.169644E+00  0.293485E+24  0.136471E-01  0.307915E+03  0.293266E+03  0.292281E+03  0.124757E+04  0.652679E+00  0.396027E-05  0.121339E+09  0.178056E+32  0.000000E+00  0.000000E+00  0.000000E+00  0.000000E+00  0.100000E+01  0.307915E+03  0.293266E+03  0.292281E+03
 -0.105000E-02  0.500000E-04  0.226505E+03  0.568983E+01  0.293752E+24  0.136595E-01  0.310327E+03  0.294819E+03  0.292542E+03  0.125849E+04  0.630879E+00  0.396439E-05  0.121211E+09  0.178030E+32  0.000000E+00  0.000000E+00  0.000000E+00  0.000000E+00  0.100000E+01  0.310327E+03  0.294819E+03  0.292542E+03
 -0.950000E-03  0.500000E-04  0.222879E+03 -0.401283E+00  0.284585E+24  0.132332E-01  0.309038E+03  0.293003E+03  0.292250E+03  0.121415E+04  0.621877E+00  0.408783E-05  0.117690E+09  0.167464E+32  0.000000E+00  0.000000E+00  0.000000E+00  0.000000E+00  0.100000E+01  0.309038E+03  0.293003E+03  0.292250E+03
 -0.850000E-03  0.500000E-04  0.215778E+03  0.290953E+01  0.285299E+24  0.132664E-01  0.306854E+03  0.292400E+03  0.292811E+03  0.120860E+04  0.604257E+00  0.407038E-05  0.117026E+09  0.166938E+32  0.000000E+00  0.000000E+00  0.000000E+00  0.000000E+00  0.100000E+01  0.306854E+03  0.292400E+03  0.292811E+03
 -0.750000E-03  0.500000E-04  0.211845E+03  0.149240E+01  0.285363E+24  0.132694E-01  0.306067E+03  0.291013E+03  0.292616E+03  0.120576E+04  0.593966E+00  0.406686E-05  0.117369E+09  0.167464E+32  0.360591E-03  0.271232E+03  0.402065E+03  0.299918E+03  0.999639E+00  0.306079E+03  0.290973E+03  0.292613E+03
 -0.650000E-03  0.500000E-04  0.211016E+03  0.161097E+01  0.282639E+24  0.131427E-01  0.306836E+03  0.293783E+03  0.292430E+03  0.119726E+04  0.590901E+00  0.410863E-05  0.116393E+09  0.164486E+32  0.126309E-03  0.240144E+03  0.290014E+03  0.299918E+03  0.999874E+00  0.306845E+03  0.293784E+03  0.292429E+03
 -0.550000E-03  0.500000E-04  0.208639E+03 -0.275563E+01  0.284220E+24  0.132162E-01  0.311455E+03  0.296528E+03  0.293627E+03  0.122208E+04  0.579931E+00  0.410107E-05  0.117452E+09  0.166911E+32  0.307858E-03  0.372264E+03  0.328667E+03  0.316154E+03  0.999692E+00  0.311437E+03  0.296518E+03  0.293612E+03
 -0.450000E-03  0.500000E-04  0.202507E+03  0.669186E+01  0.284850E+24  0.132455E-01  0.308947E+03  0.296929E+03  0.293597E+03  0.121492E+04  0.565426E+00  0.408374E-05  0.117388E+09  0.167190E+32  0.280146E-03  0.295799E+03  0.199345E+03  0.324655E+03  0.999720E+00  0.308950E+03  0.296957E+03  0.293573E+03
 -0.350000E-03  0.500000E-04  0.197970E+03 -0.149614E+00  0.279933E+24  0.130169E-01  0.310447E+03  0.300903E+03  0.293887E+03  0.119975E+04  0.551119E+00  0.416050E-05  0.115749E+09  0.162010E+32  0.102524E-03  0.289922E+03  0.329683E+03  0.324655E+03  0.999897E+00  0.310449E+03  0.300900E+03  0.293879E+03
 -0.250000E-03  0.500000E-04  0.194305E+03  0.181082E+01  0.275323E+24  0.128025E-01  0.310559E+03  0.296626E+03  0.294077E+03  0.118042E+04  0.540844E+00  0.423054E-05  0.114431E+09  0.157527E+32  0.147462E-03  0.245231E+03  0.183888E+03  0.324655E+03  0.999853E+00  0.310569E+03  0.296643E+03  0.294065E+03
 -0.150000E-03  0.500000E-04  0.197199E+03 -0.355480E+01  0.266941E+24  0.124128E-01  0.306656E+03  0.296735E+03  0.293873E+03  0.113010E+04  0.552448E+00  0.434961E-05  0.109387E+09  0.145999E+32  0.285829E-03  0.281678E+03  0.167113E+03  0.324655E+03  0.999714E+00  0.306663E+03  0.296772E+03  0.293850E+03
 -0.499999E-04  0.500000E-04  0.196685E+03  0.166901E+01  0.267953E+24  0.124598E-01  0.305476E+03  0.295179E+03  0.293131E+03  0.113002E+04  0.551999E+00  0.432900E-05  0.111493E+09  0.149375E+32  0.141068E-03  0.209895E+03  0.262344E+03  0.324655E+03  0.999859E+00  0.305490E+03  0.295184E+03  0.293119E+03
  0.499999E-04  0.500000E-04  0.188601E+03  0.326253E+01  0.276155E+24  0.128412E-01  0.304100E+03  0.295119E+03  0.294287E+03  0.115936E+04  0.530568E+00  0.419570E-05  0.113476E+09  0.156684E+32  0.136879E-03  0.219795E+03  0.159521E+03  0.324655E+03  0.999863E+00  0.304112E+03  0.295138E+03  0.294276E+03
  0.150000E-03  0.500000E-04  0.187720E+03  0.226517E+01  0.271933E+24  0.126449E-01  0.303350E+03  0.293405E+03  0.293577E+03  0.113882E+04  0.528701E+00  0.425821E-05  0.112354E+09  0.152764E+32  0.221377E-03  0.271915E+03  0.203969E+03  0.324655E+03  0.999779E+00  0.303357E+03  0.293425E+03  0.293558E+03
  0.250000E-03  0.500000E-04  0.186302E+03  0.117201E+01  0.267876E+24  0.124562E-01  0.306705E+03  0.296944E+03  0.294416E+03  0.113424E+04  0.521804E+00  0.433460E-05  0.110508E+09  0.148013E+32  0.237795E-03  0.245797E+03  0.157786E+03  0.324655E+03  0.999762E+00  0.306720E+03  0.296977E+03  0.294397E+03
  0.350000E-03  0.500000E-04  0.181710E+03 -0.168925E+01  0.276388E+24  0.128520E-01  0.303943E+03  0.295687E+03  0.294656E+03  0.115974E+04  0.511261E+00  0.419161E-05  0.113754E+09  0.157201E+32  0.582511E-04  0.982373E+02  0.567237E+02  0.324655E+03  0.999942E+00  0.303955E+03  0.295701E+03  0.294651E+03
  0.450000E-03  0.500000E-04  0.181851E+03  0.951855E+00  0.271596E+24  0.126292E-01  0.307060E+03  0.296045E+03  0.294041E+03  0.115132E+04  0.509039E+00  0.427648E-05  0.111738E+09  0.151738E+32  0.000000E+00  0.000000E+00  0.000000E+00  0.000000E+00  0.100000E+01  0.307060E+03  0.296045E+03  0.294041E+03
  0.550000E-03  0.500000E-04  0.175049E+03  0.283210E+01  0.273537E+24  0.127195E-01  0.304834E+03  0.296921E+03  0.294619E+03  0.115114E+04  0.491843E+00  0.423841E-05  0.112988E+09  0.154532E+32  0.000000E+00  0.000000E+00  0.000000E+00  0.000000E+00  0.100000E+01  0.304834E+03  0.296921E+03  0.294619E+03
  0.650000E-03  0.500000E-04  0.169329E+03  0.153543E+01  0.272611E+24  0.126764E-01  0.306610E+03  0.298896E+03  0.295196E+03  0.115393E+04  0.474348E+00  0.425897E-05  0.112311E+09  0.153086E+32  0.000000E+00  0.000000E+00  0.000000E+00  0.000000E+00  0.999961E+00  0.306601E+03  0.298889E+03  0.295196E+03
  0.750000E-03  0.500000E-04  0.165963E+03  0.405698E+01  0.269521E+24  0.125327E-01  0.305341E+03  0.295725E+03  0.294963E+03  0.113613E+04  0.466004E+00  0.430333E-05  0.111358E+09  0.150066E+32  0.805126E-04  0.556171E+03  0.220055E+03  0.283276E+03  0.999919E+00  0.305321E+03  0.295732E+03  0.294964E+03
  0.850000E-03  0.500000E-04  0.163561E+03  0.281890E+01  0.264292E+24  0.122896E-01  0.305637E+03  0.296761E+03  0.295982E+03  0.111516E+04  0.458968E+00  0.438956E-05  0.108668E+09  0.143600E+32  0.195994E-03  0.254398E+03  0.364467E+03  0.283276E+03  0.999804E+00  0.305647E+03  0.296748E+03  0.295984E+03
  0.950000E-03  0.500000E-04  0.164565E+03 -0.225375E+01  0.261334E+24  0.121520E-01  0.307510E+03  0.299997E+03  0.295013E+03  0.110944E+04  0.460353E+00  0.444603E-05  0.108493E+09  0.141765E+32  0.200891E-03  0.254940E+03  0.409867E+03  0.283276E+03  0.999799E+00  0.307520E+03  0.299975E+03  0.295014E+03
  0.105000E-02  0.500000E-04  0.166908E+03 -0.158425E+01  0.258187E+24  0.120057E-01  0.307322E+03  0.301056E+03  0.294316E+03  0.109541E+04  0.467026E+00  0.449952E-05  0.106086E+09  0.136950E+32  0.219607E-03  0.266654E+03  0.515015E+03  0.283276E+03  0.999780E+00  0.307331E+03  0.301009E+03  0.294317E+03
  0.115000E-02  0.500000E-04  0.167258E+03  0.729862E+00  0.254796E+24  0.118480E-01  0.307396E+03  0.303616E+03  0.295348E+03  0.108128E+04  0.467931E+00  0.455969E-05  0.104926E+09  0.133674E+32  0.164837E-03  0.357561E+03  0.228058E+03  0.283276E+03  0.999835E+00  0.307388E+03  0.303629E+03  0.295350E+03
  0.125000E-02  0.500000E-04  0.166268E+03  0.313110E+00  0.258739E+24  0.120313E-01  0.306115E+03  0.299703E+03  0.295731E+03  0.109344E+04  0.466132E+00  0.448547E-05  0.106682E+09  0.138014E+32  0.246193E-03  0.566799E+03  0.756107E+03  0.283276E+03  0.999754E+00  0.306051E+03  0.299591E+03  0.295733E+03
  0.135000E-02  0.500000E-04  0.167267E+03 -0.780622E+00  0.260071E+24  0.120933E-01  0.308162E+03  0.297619E+03  0.295439E+03  0.110642E+04  0.467377E+00  0.446997E-05  0.107293E+09  0.139519E+32  0.150727E-03  0.212147E+03  0.165417E+03  0.283276E+03  0.999849E+00  0.308177E+03  0.297639E+03  0.295440E+03
  0.145000E-02  0.500000E-04  0.169172E+03 -0.932046E-01  0.258112E+24  0.120022E-01  0.310681E+03  0.299591E+03  0.294573E+03  0.110706E+04  0.470773E+00  0.451308E-05  0.107039E+09  0.138140E+32  0.187127E-03  0.243758E+03  0.235233E+03  0.283276E+03  0.999813E+00  0.310694E+03  0.299603E+03  0.294574E+03
  0.155000E-02  0.500000E-04  0.164456E+03  0.201817E+01  0.261532E+24  0.121612E-01  0.311252E+03  0.303204E+03  0.294572E+03  0.112379E+04  0.457264E+00  0.445612E-05  0.108597E+09  0.142008E+32  0.000000E+00  0.000000E+00  0.000000E+00  0.000000E+00  0.100000E+01  0.311252E+03  0.303204E+03  0.294572E+03
  0.165000E-02  0.500000E-04  0.160148E+03  0.189989E+01  0.256216E+24  0.119140E-01  0.310716E+03  0.302495E+03  0.295814E+03  0.109905E+04  0.445669E+00  0.454661E-05  0.105297E+09  0.134893E+32  0.000000E+00  0.000000E+00  0.000000E+00  0.000000E+00  0.100000E+01  0.310716E+03  0.302495E+03  0.295814E+03
  0.175000E-02  0.500000E-04  0.152989E+03  0.325070E+01  0.260506E+24  0.121135E-01  0.310039E+03  0.302205E+03  0.295700E+03  0.111502E+04  0.426277E+00  0.446930E-05  0.107261E+09  0.139711E+32  0.000000E+00  0.000000E+00  0.000000E+00  0.000000E+00  0.100000E+01  0.310039E+03  0.302205E+03  0.295700E+03
  0.185000E-02  0.500000E-04  0.153749E+03  0.136711E+01  0.255272E+24  0.118702E-01  0.307137E+03  0.298986E+03  0.295884E+03  0.108239E+04  0.430333E+00  0.455022E-05  0.105690E+09  0.134899E+32  0.000000E+00  0.000000E+00  0.000000E+00  0.000000E+00  0.100000E+01  0.307137E+03  0.298986E+03  0.295884E+03
  0.195000E-02  0.500000E-04  0.149110E+03 -0.188306E+01  0.256581E+24  0.119310E-01  0.310604E+03  0.299463E+03  0.295974E+03  0.110022E+04  0.415030E+00  0.453974E-05  0.106428E+09  0.136537E+32  0.000000E+00  0.000000E+00  0.000000E+00  0.000000E+00  0.100000E+01  0.310604E+03  0.299463E+03  0.295974E+03
  0.205000E-02  0.500000E-04  0.147839E+03  0.132214E+01  0.251318E+24  0.116863E-01  0.312569E+03  0.304642E+03  0.295243E+03  0.108447E+04  0.410180E+00  0.464211E-05  0.104219E+09  0.130961E+32  0.000000E+00  0.000000E+00  0.000000E+00  0.000000E+00  0.100000E+01  0.312569E+03  0.304642E+03  0.295243E+03
  0.215000E-02  0.500000E-04  0.148210E+03  0.122569E+01  0.247971E+24  0.115306E-01  0.311789E+03  0.302787E+03  0.295968E+03  0.106736E+04  0.411720E+00  0.470184E-05  0.103406E+09  0.128208E+32  0.000000E+00  0.000000E+00  0.000000E+00  0.000000E+00  0.100000E+01  0.311789E+03  0.302787E+03  0.295968E+03
  0.225000E-02  0.500000E-04  0.149153E+03 -0.276049E+01  0.249014E+24  0.115791E-01  0.312879E+03  0.302655E+03  0.296465E+03  0.107559E+04  0.413675E+00  0.468623E-05  0.102498E+09  0.127618E+32  0.000000E+00  0.000000E+00  0.000000E+00  0.000000E+00  0.100000E+01  0.312879E+03  0.302655E+03  0.296465E+03
  0.235000E-02  0.500000E-04  0.148433E+03  0.183848E+01  0.254691E+24  0.118431E-01  0.308107E+03  0.302141E+03  0.295482E+03  0.108334E+04  0.414813E+00  0.456421E-05  0.105328E+09  0.134130E+32  0.824525E-04  0.348131E+03  0.907262E+02  0.283276E+03  0.999918E+00  0.308104E+03  0.302158E+03  0.295483E+03
  0.245000E-02  0.500000E-04  0.150223E+03 -0.116627E+01  0.249296E+24  0.115923E-01  0.312836E+03  0.304344E+03  0.294567E+03  0.107667E+04  0.416612E+00  0.468076E-05  0.103365E+09  0.128843E+32  0.000000E+00  0.000000E+00  0.000000E+00  0.000000E+00  0.999983E+00  0.312837E+03  0.304347E+03  0.294567E+03
  0.255000E-02  0.500000E-04  0.155628E+03 -0.776205E+00  0.244996E+24  0.113923E-01  0.314296E+03  0.303905E+03  0.294769E+03  0.106303E+04  0.430591E+00  0.476846E-05  0.102000E+09  0.124948E+32  0.000000E+00  0.000000E+00  0.000000E+00  0.000000E+00  0.100000E+01  0.314296E+03  0.303905E+03  0.294769E+03
  0.265000E-02  0.500000E-04  0.151835E+03  0.918309E+00  0.246646E+24  0.114690E-01  0.311250E+03  0.303279E+03  0.296199E+03  0.105982E+04  0.422150E+00  0.472506E-05  0.102686E+09  0.126635E+32  0.000000E+00  0.000000E+00  0.000000E+00  0.000000E+00  0.100000E+01  0.311250E+03  0.303279E+03  0.296199E+03
  0.275000E-02  0.500000E-04  0.149646E+03  0.354060E+01  0.246819E+24  0.114771E-01  0.308654E+03  0.299244E+03  0.296144E+03  0.105172E+04  0.417920E+00  0.471186E-05  0.102501E+09  0.126496E+32  0.000000E+00  0.000000E+00  0.000000E+00  0.000000E+00  0.100000E+01  0.308654E+03  0.299244E+03  0.296144E+03
  0.285000E-02  0.500000E-04  0.147450E+03 -0.147088E+01  0.244231E+24  0.113567E-01  0.310236E+03  0.301486E+03  0.295552E+03  0.104602E+04  0.410641E+00  0.476789E-05  0.101479E+09  0.123922E+32  0.000000E+00  0.000000E+00  0.000000E+00  0.000000E+00  0.100000E+01  0.310236E+03  0.301486E+03  0.295552E+03
  0.295000E-02  0.500000E-04  0.147756E+03  0.210253E+01  0.242768E+24  0.112887E-01  0.310887E+03  0.301209E+03  0.294799E+03  0.104194E+04  0.411083E+00  0.479912E-05  0.102334E+09  0.124217E+32  0.000000E+00  0.000000E+00  0.000000E+00  0.000000E+00  0.100000E+01  0.310887E+03  0.301209E+03  0.294799E+03
  0.305000E-02  0.500000E-04  0.149353E+03 -0.168211E+01  0.242324E+24  0.112681E-01  0.309271E+03  0.303635E+03  0.295485E+03  0.103463E+04  0.416593E+00  0.480165E-05  0.100904E+09  0.122257E+32  0.000000E+00  0.000000E+00  0.000000E+00  0.000000E+00  0.100000E+01  0.309271E+03  0.303635E+03  0.295485E+03
  0.315000E-02  0.500000E-04  0.145917E+03  0.301010E+00  0.243150E+24  0.113065E-01  0.308812E+03  0.301235E+03  0.295787E+03  0.103662E+04  0.407287E+00  0.478356E-05  0.100322E+09  0.121967E+32  0.000000E+00  0.000000E+00  0.000000E+00  0.000000E+00  0.100000E+01  0.308812E+03  0.301235E+03  0.295787E+03
  0.325000E-02  0.500000E-04  0.145944E+03 -0.262634E+01  0.250132E+24  0.116311E-01  0.305427E+03  0.298809E+03  0.295284E+03  0.105469E+04  0.409679E+00  0.463725E-05  0.102815E+09  0.128586E+32  0.000000E+00  0.000000E+00  0.000000E+00  0.000000E+00  0.100000E+01  0.305427E+03  0.298809E+03  0.295284E+03
  0.335000E-02  0.500000E-04  0.142098E+03  0.437103E+01  0.249194E+24  0.115875E-01  0.307615E+03  0.301351E+03  0.295224E+03  0.105826E+04  0.397586E+00  0.466301E-05  0.103158E+09  0.128532E+32  0.000000E+00  0.000000E+00  0.000000E+00  0.000000E+00  0.100000E+01  0.307615E+03  0.301351E+03  0.295224E+03
  0.345000E-02  0.500000E-04  0.137311E+03  0.735759E-01  0.252104E+24  0.117228E-01  0.310434E+03  0.301756E+03  0.295637E+03  0.108043E+04  0.382261E+00  0.461971E-05  0.104060E+09  0.131169E+32  0.000000E+00  0.000000E+00  0.000000E+00  0.000000E+00  0.999961E+00  0.310439E+03  0.301758E+03  0.295637E+03
  0.355000E-02  0.500000E-04  0.142949E+03 -0.101842E-01  0.246699E+24  0.114715E-01  0.311741E+03  0.304385E+03  0.294977E+03  0.106172E+04  0.397124E+00  0.472590E-05  0.102305E+09  0.126192E+32  0.783136E-03  0.330367E+03  0.304507E+03  0.300928E+03  0.999217E+00  0.311726E+03  0.304385E+03  0.294972E+03
  0.365000E-02  0.500000E-04  0.138927E+03  0.800018E+00  0.248851E+24  0.115716E-01  0.308687E+03  0.301848E+03  0.295699E+03  0.106049E+04  0.387861E+00  0.467352E-05  0.102821E+09  0.127935E+32  0.700416E-03  0.337709E+03  0.331647E+03  0.291198E+03  0.999300E+00  0.308667E+03  0.301827E+03  0.295701E+03
  0.375000E-02  0.500000E-04  0.139543E+03  0.791510E+00  0.248469E+24  0.115538E-01  0.308178E+03  0.302724E+03  0.295971E+03  0.105712E+04  0.389901E+00  0.467876E-05  0.103293E+09  0.128326E+32  0.278906E-03  0.339530E+03  0.352083E+03  0.278848E+03  0.999721E+00  0.308169E+03  0.302710E+03  0.295974E+03
  0.385000E-02  0.500000E-04  0.134662E+03  0.227521E+01  0.246611E+24  0.114674E-01  0.309000E+03  0.306134E+03  0.296785E+03  0.105201E+04  0.375810E+00  0.471715E-05  0.101676E+09  0.125372E+32  0.456992E-03  0.313125E+03  0.335025E+03  0.278848E+03  0.999543E+00  0.308998E+03  0.306121E+03  0.296789E+03
  0.395000E-02  0.500000E-04  0.125971E+03  0.304793E+01  0.249657E+24  0.116090E-01  0.309472E+03  0.303072E+03  0.296381E+03  0.106663E+04  0.351341E+00  0.466138E-05  0.102907E+09  0.128458E+32  0.255149E-03  0.297822E+03  0.207473E+03  0.278848E+03  0.999745E+00  0.309475E+03  0.303097E+03  0.296383E+03
  0.405000E-02  0.500000E-04  0.128399E+03  0.197995E+01  0.241256E+24  0.112184E-01  0.310789E+03  0.304712E+03  0.296351E+03  0.103512E+04  0.357290E+00  0.482883E-05  0.995436E+08  0.120077E+32  0.406206E-03  0.266042E+03  0.213200E+03  0.306417E+03  0.999594E+00  0.310807E+03  0.304749E+03  0.296345E+03
  0.415000E-02  0.500000E-04  0.124476E+03 -0.328884E+01  0.247619E+24  0.115143E-01  0.304119E+03  0.299026E+03  0.296992E+03  0.103962E+04  0.350233E+00  0.467930E-05  0.102247E+09  0.126591E+32  0.678459E-04  0.308245E+03  0.284374E+03  0.309148E+03  0.999932E+00  0.304119E+03  0.299027E+03  0.296991E+03
  0.425000E-02  0.500000E-04  0.125403E+03  0.463707E+01  0.246905E+24  0.114811E-01  0.308845E+03  0.303416E+03  0.296954E+03  0.105273E+04  0.350248E+00  0.471095E-05  0.102138E+09  0.126092E+32  0.212631E-03  0.268529E+03  0.222475E+03  0.309148E+03  0.999787E+00  0.308854E+03  0.303434E+03  0.296951E+03
  0.435000E-02  0.500000E-04  0.129952E+03  0.299789E-03  0.237197E+24  0.110297E-01  0.317464E+03  0.310647E+03  0.296550E+03  0.103957E+04  0.357749E+00  0.493762E-05  0.986404E+08  0.116986E+32  0.224285E-03  0.315058E+03  0.161452E+03  0.309148E+03  0.999776E+00  0.317465E+03  0.310681E+03  0.296545E+03
  0.445000E-02  0.500000E-04  0.128754E+03 -0.152346E+01  0.238348E+24  0.110832E-01  0.311093E+03  0.304531E+03  0.295157E+03  0.102365E+04  0.358087E+00  0.488894E-05  0.991416E+08  0.118151E+32  0.000000E+00  0.000000E+00  0.000000E+00  0.000000E+00  0.999971E+00  0.311092E+03  0.304531E+03  0.295156E+03
  0.455000E-02  0.500000E-04  0.127586E+03  0.284347E+00  0.245971E+24  0.114377E-01  0.306197E+03  0.302680E+03  0.295977E+03  0.103976E+04  0.357638E+00  0.471866E-05  0.102058E+09  0.125516E+32  0.000000E+00  0.000000E+00  0.000000E+00  0.000000E+00  0.100000E+01  0.306197E+03  0.302680E+03  0.295977E+03
  0.465000E-02  0.500000E-04  0.124818E+03 -0.892637E+00  0.247537E+24  0.115105E-01  0.302389E+03  0.299955E+03  0.296006E+03  0.103337E+04  0.352083E+00  0.467416E-05  0.102379E+09  0.126713E+32  0.000000E+00  0.000000E+00  0.000000E+00  0.000000E+00  0.100000E+01  0.302389E+03  0.299955E+03  0.296006E+03
  0.475000E-02  0.500000E-04  0.122345E+03 -0.108573E+01  0.245314E+24  0.114071E-01  0.302809E+03  0.299797E+03  0.296235E+03  0.102551E+04  0.344873E+00  0.471816E-05  0.101070E+09  0.123969E+32  0.000000E+00  0.000000E+00  0.000000E+00  0.000000E+00  0.100000E+01  0.302809E+03  0.299797E+03  0.296235E+03
  0.485000E-02  0.500000E-04  0.125792E+03 -0.447757E+00  0.247054E+24  0.114880E-01  0.297522E+03  0.289598E+03  0.296999E+03  0.101475E+04  0.357715E+00  0.466435E-05  0.101187E+09  0.124993E+32  0.000000E+00  0.000000E+00  0.000000E+00  0.000000E+00  0.100000E+01  0.297522E+03  0.289598E+03  0.296999E+03
  0.495000E-02  0.500000E-04  0.128278E+03  0.230334E+00  0.241628E+24  0.112357E-01  0.304229E+03  0.297486E+03  0.296352E+03  0.101484E+04  0.360740E+00  0.479574E-05  0.993543E+08  0.120034E+32  0.000000E+00  0.000000E+00  0.000000E+00  0.000000E+00  0.100000E+01  0.304229E+03  0.297486E+03  0.296352E+03
  0.505000E-02  0.500000E-04  0.124642E+03  0.586025E-01  0.247115E+24  0.114909E-01  0.303958E+03  0.298418E+03  0.295443E+03  0.103696E+04  0.350670E+00  0.468821E-05  0.102051E+09  0.126092E+32  0.000000E+00  0.000000E+00  0.000000E+00  0.000000E+00  0.100000E+01  0.303958E+03  0.298418E+03  0.295443E+03
  0.515000E-02  0.500000E-04  0.123980E+03  0.243948E+01  0.246593E+24  0.114666E-01  0.303616E+03  0.302602E+03  0.295745E+03  0.103360E+04  0.349073E+00  0.469681E-05  0.101989E+09  0.125749E+32  0.000000E+00  0.000000E+00  0.000000E+00  0.000000E+00  0.100000E+01  0.303616E+03  0.302602E+03  0.295745E+03
  0.525000E-02  0.500000E-04  0.122921E+03 -0.699254E+00  0.242546E+24  0.112784E-01  0.309838E+03  0.303413E+03  0.296059E+03  0.103747E+04  0.342536E+00  0.479947E-05  0.101036E+09  0.122529E+32  0.000000E+00  0.000000E+00  0.000000E+00  0.000000E+00  0.100000E+01  0.309838E+03  0.303413E+03  0.296059E+03
  0.535000E-02  0.500000E-04  0.118018E+03  0.247955E+01  0.245823E+24  0.114308E-01  0.307948E+03  0.302622E+03  0.296552E+03  0.104508E+04  0.329949E+00  0.472824E-05  0.100509E+09  0.123537E+32  0.000000E+00  0.000000E+00  0.000000E+00  0.000000E+00  0.100000E+01  0.307948E+03  0.302622E+03  0.296552E+03
  0.545000E-02  0.500000E-04  0.113826E+03  0.139024E+01  0.240867E+24  0.112003E-01  0.305528E+03  0.300009E+03  0.296817E+03  0.101596E+04  0.319440E+00  0.481602E-05  0.986254E+08  0.118778E+32  0.000000E+00  0.000000E+00  0.000000E+00  0.000000E+00  0.100000E+01  0.305528E+03  0.300009E+03  0.296817E+03