TITLE=" Box                                                                     /                                                                         "
VARIABLES="X",        "Y",      "Vx   ",      "Vy   ",      "Nden ",      "Rho  ",      "Ttrn ",      "Trot ",      "Tvib ",      "Press",      "Ma   ",      "Lambd",      "Relac",      "Coll ",      "frac1",      "Ttrn1",      "Trot1",      "Tvib1",      "frac2",      "Ttrn2",      "Trot2",      "Tvib2"
ZONE T="DSMC,BG", I=  200, J=   50, F=POINT
 -0.395000E-02  0.500000E-04  0.801546E+03  0.251876E+02  0.128201E+25  0.596135E-01  0.100734E+03  0.842774E+02  0.233986E+03  0.178286E+04  0.391916E+01  0.685654E-06  0.383192E+09  0.245628E+33  0.000000E+00  0.000000E+00  0.000000E+00  0.000000E+00  0.100000E+01  0.100734E+03  0.842774E+02  0.233986E+03
 -0.385000E-02  0.500000E-04  0.742333E+03  0.670511E+02  0.138304E+25  0.643115E-01  0.143416E+03  0.115854E+03  0.246069E+03  0.273830E+04  0.305283E+01  0.694251E-06  0.474426E+09  0.328076E+33  0.000000E+00  0.000000E+00  0.000000E+00  0.000000E+00  0.100000E+01  0.143416E+03  0.115854E+03  0.246069E+03
 -0.375000E-02  0.500000E-04  0.712882E+03  0.886553E+02  0.138210E+25  0.642674E-01  0.160118E+03  0.130808E+03  0.250326E+03  0.305512E+04  0.278463E+01  0.714127E-06  0.528844E+09  0.365456E+33  0.000000E+00  0.000000E+00  0.000000E+00  0.000000E+00  0.100000E+01  0.160118E+03  0.130808E+03  0.250326E+03
 -0.365000E-02  0.500000E-04  0.674696E+03  0.737106E+02  0.111962E+25  0.520622E-01  0.185159E+03  0.148617E+03  0.257358E+03  0.286195E+04  0.244653E+01  0.914154E-06  0.462597E+09  0.258966E+33  0.000000E+00  0.000000E+00  0.000000E+00  0.000000E+00  0.100000E+01  0.185159E+03  0.148617E+03  0.257358E+03
 -0.355000E-02  0.500000E-04  0.627970E+03  0.524996E+02  0.866838E+24  0.403080E-01  0.211278E+03  0.169603E+03  0.263957E+03  0.252837E+04  0.212649E+01  0.122033E-05  0.357725E+09  0.155045E+33  0.000000E+00  0.000000E+00  0.000000E+00  0.000000E+00  0.100000E+01  0.211278E+03  0.169603E+03  0.263957E+03
 -0.345000E-02  0.500000E-04  0.579809E+03  0.397061E+02  0.718725E+24  0.334207E-01  0.236491E+03  0.190314E+03  0.269831E+03  0.234653E+04  0.185367E+01  0.151389E-05  0.293396E+09  0.105435E+33  0.000000E+00  0.000000E+00  0.000000E+00  0.000000E+00  0.100000E+01  0.236491E+03  0.190314E+03  0.269831E+03
 -0.335000E-02  0.500000E-04  0.535380E+03  0.316789E+02  0.621236E+24  0.288875E-01  0.255573E+03  0.208082E+03  0.273941E+03  0.219190E+04  0.164552E+01  0.178577E-05  0.254500E+09  0.790523E+32  0.000000E+00  0.000000E+00  0.000000E+00  0.000000E+00  0.100000E+01  0.255573E+03  0.208082E+03  0.273941E+03
 -0.325000E-02  0.500000E-04  0.501297E+03  0.243974E+02  0.546746E+24  0.254237E-01  0.266487E+03  0.221522E+03  0.277404E+03  0.201146E+04  0.150803E+01  0.205039E-05  0.223732E+09  0.611621E+32  0.000000E+00  0.000000E+00  0.000000E+00  0.000000E+00  0.100000E+01  0.266487E+03  0.221522E+03  0.277404E+03
 -0.315000E-02  0.500000E-04  0.469912E+03  0.181881E+02  0.497501E+24  0.231338E-01  0.276048E+03  0.234616E+03  0.279956E+03  0.189595E+04  0.138832E+01  0.227329E-05  0.203401E+09  0.505961E+32  0.000000E+00  0.000000E+00  0.000000E+00  0.000000E+00  0.100000E+01  0.276048E+03  0.234616E+03  0.279956E+03
 -0.305000E-02  0.500000E-04  0.437584E+03  0.150556E+02  0.466264E+24  0.216813E-01  0.286513E+03  0.245196E+03  0.282065E+03  0.184427E+04  0.126878E+01  0.244826E-05  0.190048E+09  0.443062E+32  0.000000E+00  0.000000E+00  0.000000E+00  0.000000E+00  0.100000E+01  0.286513E+03  0.245196E+03  0.282065E+03
 -0.295000E-02  0.500000E-04  0.412663E+03  0.142673E+02  0.438782E+24  0.204034E-01  0.291546E+03  0.252615E+03  0.283935E+03  0.176606E+04  0.118616E+01  0.261295E-05  0.177956E+09  0.390418E+32  0.000000E+00  0.000000E+00  0.000000E+00  0.000000E+00  0.100000E+01  0.291546E+03  0.252615E+03  0.283935E+03
 -0.285000E-02  0.500000E-04  0.392939E+03  0.109080E+02  0.414206E+24  0.192606E-01  0.294271E+03  0.258427E+03  0.284762E+03  0.168273E+04  0.112398E+01  0.277443E-05  0.168473E+09  0.348913E+32  0.000000E+00  0.000000E+00  0.000000E+00  0.000000E+00  0.100000E+01  0.294271E+03  0.258427E+03  0.284762E+03
 -0.275000E-02  0.500000E-04  0.376903E+03  0.759348E+01  0.398358E+24  0.185236E-01  0.295937E+03  0.263392E+03  0.285796E+03  0.162750E+04  0.107487E+01  0.288888E-05  0.162292E+09  0.323251E+32  0.000000E+00  0.000000E+00  0.000000E+00  0.000000E+00  0.100000E+01  0.295937E+03  0.263392E+03  0.285796E+03
 -0.265000E-02  0.500000E-04  0.352534E+03  0.940051E+01  0.395423E+24  0.183872E-01  0.301932E+03  0.269790E+03  0.286783E+03  0.164824E+04  0.995500E+00  0.292495E-05  0.161073E+09  0.318459E+32  0.000000E+00  0.000000E+00  0.000000E+00  0.000000E+00  0.100000E+01  0.301932E+03  0.269790E+03  0.286783E+03
 -0.255000E-02  0.500000E-04  0.343235E+03  0.900144E+01  0.371514E+24  0.172754E-01  0.300850E+03  0.271890E+03  0.287620E+03  0.154303E+04  0.970971E+00  0.311040E-05  0.151591E+09  0.281591E+32  0.000000E+00  0.000000E+00  0.000000E+00  0.000000E+00  0.100000E+01  0.300850E+03  0.271890E+03  0.287620E+03
 -0.245000E-02  0.500000E-04  0.330129E+03  0.725739E+01  0.358878E+24  0.166878E-01  0.300983E+03  0.276418E+03  0.287943E+03  0.149121E+04  0.933592E+00  0.322027E-05  0.146138E+09  0.262228E+32  0.000000E+00  0.000000E+00  0.000000E+00  0.000000E+00  0.100000E+01  0.300983E+03  0.276418E+03  0.287943E+03
 -0.235000E-02  0.500000E-04  0.319666E+03  0.489203E+01  0.344019E+24  0.159969E-01  0.304142E+03  0.277884E+03  0.289047E+03  0.144447E+04  0.899185E+00  0.336813E-05  0.141014E+09  0.242557E+32  0.000000E+00  0.000000E+00  0.000000E+00  0.000000E+00  0.100000E+01  0.304142E+03  0.277884E+03  0.289047E+03
 -0.225000E-02  0.500000E-04  0.308682E+03  0.503137E+01  0.339460E+24  0.157849E-01  0.306732E+03  0.282080E+03  0.289466E+03  0.143746E+04  0.864629E+00  0.342061E-05  0.138859E+09  0.235686E+32  0.000000E+00  0.000000E+00  0.000000E+00  0.000000E+00  0.100000E+01  0.306732E+03  0.282080E+03  0.289466E+03
 -0.215000E-02  0.500000E-04  0.293710E+03  0.498920E+01  0.339468E+24  0.157853E-01  0.308440E+03  0.282932E+03  0.290946E+03  0.144550E+04  0.820420E+00  0.342528E-05  0.139398E+09  0.236607E+32  0.000000E+00  0.000000E+00  0.000000E+00  0.000000E+00  0.100000E+01  0.308440E+03  0.282932E+03  0.290946E+03
 -0.205000E-02  0.500000E-04  0.277365E+03  0.667362E+01  0.342791E+24  0.159398E-01  0.312243E+03  0.289544E+03  0.291099E+03  0.147765E+04  0.770142E+00  0.340249E-05  0.141482E+09  0.242494E+32  0.000000E+00  0.000000E+00  0.000000E+00  0.000000E+00  0.100000E+01  0.312243E+03  0.289544E+03  0.291099E+03
 -0.195000E-02  0.500000E-04  0.240891E+03  0.106633E+02  0.360290E+24  0.167535E-01  0.313834E+03  0.294143E+03  0.291425E+03  0.156099E+04  0.667631E+00  0.324135E-05  0.148767E+09  0.267996E+32  0.000000E+00  0.000000E+00  0.000000E+00  0.000000E+00  0.100000E+01  0.313834E+03  0.294143E+03  0.291425E+03
 -0.185000E-02  0.500000E-04  0.192483E+03  0.155014E+02  0.384445E+24  0.178767E-01  0.318283E+03  0.301316E+03  0.292896E+03  0.168926E+04  0.530920E+00  0.304840E-05  0.160189E+09  0.307920E+32  0.000000E+00  0.000000E+00  0.000000E+00  0.000000E+00  0.100000E+01  0.318283E+03  0.301316E+03  0.292896E+03
 -0.175000E-02  0.500000E-04  0.143295E+03  0.132591E+02  0.414380E+24  0.192687E-01  0.321887E+03  0.307874E+03  0.292803E+03  0.184141E+04  0.393434E+00  0.283616E-05  0.172872E+09  0.358172E+32  0.000000E+00  0.000000E+00  0.000000E+00  0.000000E+00  0.100000E+01  0.321887E+03  0.307874E+03  0.292803E+03
 -0.165000E-02  0.500000E-04  0.952642E+02  0.135352E+02  0.449595E+24  0.209062E-01  0.325148E+03  0.316169E+03  0.293654E+03  0.201814E+04  0.261740E+00  0.262060E-05  0.188275E+09  0.423237E+32  0.000000E+00  0.000000E+00  0.000000E+00  0.000000E+00  0.100000E+01  0.325148E+03  0.316169E+03  0.293654E+03
 -0.155000E-02  0.500000E-04  0.542292E+02  0.106415E+02  0.482168E+24  0.224208E-01  0.322775E+03  0.316809E+03  0.293697E+03  0.214856E+04  0.150879E+00  0.243910E-05  0.202434E+09  0.488037E+32  0.103075E-02  0.310170E+03  0.284059E+03  0.299175E+03  0.998969E+00  0.322788E+03  0.316843E+03  0.293690E+03
 -0.145000E-02  0.500000E-04  0.273505E+02  0.443567E+01  0.513025E+24  0.238557E-01  0.320966E+03  0.316686E+03  0.295455E+03  0.227325E+04  0.758601E-01  0.228917E-05  0.216046E+09  0.554185E+32  0.132638E-01  0.318182E+03  0.321476E+03  0.297660E+03  0.986736E+00  0.321003E+03  0.316621E+03  0.295423E+03
 -0.135000E-02  0.500000E-04  0.125373E+02  0.403746E+01  0.551475E+24  0.256436E-01  0.313199E+03  0.310776E+03  0.296805E+03  0.238449E+04  0.365058E-01  0.211657E-05  0.231801E+09  0.639162E+32  0.707517E-01  0.310311E+03  0.309556E+03  0.300711E+03  0.929248E+00  0.313419E+03  0.310868E+03  0.296460E+03
 -0.125000E-02  0.500000E-04  0.362507E+01  0.658669E+01  0.573784E+24  0.266809E-01  0.310387E+03  0.309285E+03  0.297736E+03  0.245867E+04  0.209321E-01  0.202969E-05  0.240115E+09  0.688870E+32  0.258301E+00  0.308235E+03  0.307831E+03  0.300985E+03  0.741699E+00  0.311136E+03  0.309792E+03  0.296410E+03
 -0.115000E-02  0.500000E-04 -0.532058E+01  0.533405E+01  0.585651E+24  0.272328E-01  0.307604E+03  0.306365E+03  0.298317E+03  0.248702E+04  0.210702E-01  0.198409E-05  0.244284E+09  0.715327E+32  0.541712E+00  0.305854E+03  0.304811E+03  0.300753E+03  0.458288E+00  0.309673E+03  0.308202E+03  0.294770E+03
 -0.105000E-02  0.500000E-04 -0.595868E+01 -0.861992E+00  0.596962E+24  0.277587E-01  0.305186E+03  0.304775E+03  0.298050E+03  0.251513E+04  0.169047E-01  0.194266E-05  0.249890E+09  0.745873E+32  0.765579E+00  0.304322E+03  0.303936E+03  0.299184E+03  0.234421E+00  0.308007E+03  0.307514E+03  0.293527E+03
 -0.950000E-03  0.500000E-04 -0.141052E+00  0.127005E+01  0.615074E+24  0.286009E-01  0.296355E+03  0.295532E+03  0.298407E+03  0.251645E+04  0.364097E-02  0.187166E-05  0.255876E+09  0.786914E+32  0.891865E+00  0.295725E+03  0.295079E+03  0.299071E+03  0.108135E+00  0.301550E+03  0.299274E+03  0.291146E+03
 -0.850000E-03  0.500000E-04  0.389759E+01  0.125002E+01  0.625566E+24  0.290888E-01  0.292880E+03  0.292032E+03  0.299206E+03  0.252937E+04  0.117315E-01  0.183485E-05  0.260228E+09  0.813949E+32  0.956973E+00  0.292895E+03  0.292030E+03  0.299530E+03  0.430270E-01  0.292541E+03  0.292072E+03  0.288524E+03
 -0.750000E-03  0.500000E-04  0.114016E+02  0.246385E+01  0.624350E+24  0.290323E-01  0.293050E+03  0.291314E+03  0.299319E+03  0.252592E+04  0.334230E-01  0.183870E-05  0.259775E+09  0.810953E+32  0.970690E+00  0.293164E+03  0.291245E+03  0.299564E+03  0.293105E-01  0.289273E+03  0.293583E+03  0.286183E+03
 -0.650000E-03  0.500000E-04  0.150499E+02  0.366685E+01  0.625816E+24  0.291004E-01  0.289616E+03  0.288771E+03  0.299801E+03  0.250217E+04  0.446463E-01  0.182899E-05  0.259307E+09  0.811393E+32  0.979878E+00  0.289661E+03  0.288774E+03  0.299912E+03  0.201224E-01  0.287401E+03  0.288648E+03  0.292922E+03
 -0.550000E-03  0.500000E-04  0.197350E+02  0.468244E+01  0.628646E+24  0.292321E-01  0.288259E+03  0.286753E+03  0.299633E+03  0.250172E+04  0.585974E-01  0.181862E-05  0.260040E+09  0.817365E+32  0.986460E+00  0.288189E+03  0.286814E+03  0.299743E+03  0.135401E-01  0.293412E+03  0.282303E+03  0.286863E+03
 -0.450000E-03  0.500000E-04  0.226022E+02  0.234112E+01  0.629984E+24  0.292943E-01  0.286396E+03  0.284940E+03  0.300266E+03  0.249084E+04  0.658606E-01  0.181181E-05  0.259988E+09  0.818943E+32  0.990145E+00  0.286542E+03  0.285096E+03  0.300352E+03  0.985463E-02  0.271735E+03  0.269288E+03  0.285423E+03
 -0.350000E-03  0.500000E-04  0.309752E+02  0.351019E+00  0.621852E+24  0.289161E-01  0.289193E+03  0.290019E+03  0.300525E+03  0.248270E+04  0.893490E-01  0.183998E-05  0.258507E+09  0.803766E+32  0.993781E+00  0.289243E+03  0.290106E+03  0.300586E+03  0.621929E-02  0.281199E+03  0.276006E+03  0.277693E+03
 -0.250000E-03  0.500000E-04  0.382035E+02  0.262444E+01  0.610736E+24  0.283992E-01  0.289552E+03  0.287892E+03  0.300594E+03  0.244135E+04  0.110383E+00  0.187404E-05  0.253421E+09  0.773868E+32  0.996100E+00  0.289636E+03  0.287944E+03  0.300631E+03  0.390035E-02  0.268070E+03  0.274650E+03  0.269311E+03
 -0.150000E-03  0.500000E-04  0.430039E+02  0.336186E+01  0.609635E+24  0.283480E-01  0.284697E+03  0.283470E+03  0.300265E+03  0.239608E+04  0.125395E+00  0.186951E-05  0.250708E+09  0.764203E+32  0.997578E+00  0.284729E+03  0.283486E+03  0.300288E+03  0.242160E-02  0.271550E+03  0.277075E+03  0.273599E+03
 -0.499999E-04  0.500000E-04  0.451704E+02  0.300059E+01  0.594799E+24  0.276581E-01  0.284499E+03  0.283591E+03  0.300082E+03  0.233615E+04  0.131647E+00  0.191581E-05  0.244947E+09  0.728470E+32  0.998676E+00  0.284507E+03  0.283603E+03  0.300094E+03  0.132397E-02  0.278755E+03  0.274251E+03  0.278125E+03
  0.499999E-04  0.500000E-04  0.515727E+02  0.342947E+01  0.585267E+24  0.272149E-01  0.279984E+03  0.280077E+03  0.300171E+03  0.226223E+04  0.151514E+00  0.193924E-05  0.240230E+09  0.702993E+32  0.998165E+00  0.279979E+03  0.280104E+03  0.300182E+03  0.183471E-02  0.282462E+03  0.265153E+03  0.248811E+03
  0.150000E-03  0.500000E-04  0.559588E+02  0.248444E+01  0.562761E+24  0.261684E-01  0.282916E+03  0.281996E+03  0.299587E+03  0.219802E+04  0.163346E+00  0.202206E-05  0.231418E+09  0.651164E+32  0.999606E+00  0.282925E+03  0.281993E+03  0.299590E+03  0.394304E-03  0.261235E+03  0.288465E+03  0.286015E+03
  0.250000E-03  0.500000E-04  0.609052E+02  0.286426E+01  0.534427E+24  0.248509E-01  0.285640E+03  0.283421E+03  0.300271E+03  0.210744E+04  0.176956E+00  0.213437E-05  0.218722E+09  0.584454E+32  0.998536E+00  0.285647E+03  0.283459E+03  0.300275E+03  0.146436E-02  0.280448E+03  0.257704E+03  0.297337E+03
  0.350000E-03  0.500000E-04  0.681504E+02 -0.143621E+01  0.516533E+24  0.240188E-01  0.285724E+03  0.282522E+03  0.299934E+03  0.203749E+04  0.197803E+00  0.220847E-05  0.211276E+09  0.545656E+32  0.998978E+00  0.285720E+03  0.282523E+03  0.299940E+03  0.102181E-02  0.290353E+03  0.281187E+03  0.292663E+03
  0.450000E-03  0.500000E-04  0.751912E+02  0.218887E+01  0.501884E+24  0.233376E-01  0.283407E+03  0.280077E+03  0.299988E+03  0.196364E+04  0.219173E+00  0.226831E-05  0.206004E+09  0.516951E+32  0.999459E+00  0.283416E+03  0.280077E+03  0.299989E+03  0.541157E-03  0.265686E+03  0.280512E+03  0.296967E+03
  0.550000E-03  0.500000E-04  0.801474E+02  0.465206E+01  0.475668E+24  0.221186E-01  0.282270E+03  0.281456E+03  0.300092E+03  0.185361E+04  0.234384E+00  0.239092E-05  0.194498E+09  0.462582E+32  0.999304E+00  0.282255E+03  0.281406E+03  0.300098E+03  0.696069E-03  0.304150E+03  0.352882E+03  0.283725E+03
  0.650000E-03  0.500000E-04  0.875594E+02  0.121215E+01  0.458465E+24  0.213186E-01  0.280935E+03  0.279428E+03  0.300043E+03  0.177812E+04  0.256261E+00  0.247770E-05  0.186779E+09  0.428158E+32  0.998910E+00  0.280928E+03  0.279361E+03  0.300053E+03  0.109015E-02  0.287331E+03  0.341021E+03  0.285982E+03
  0.750000E-03  0.500000E-04  0.941329E+02  0.301350E+01  0.437521E+24  0.203447E-01  0.282548E+03  0.279120E+03  0.300332E+03  0.170663E+04  0.274827E+00  0.260002E-05  0.179422E+09  0.392504E+32  0.999422E+00  0.282558E+03  0.279126E+03  0.300332E+03  0.577569E-03  0.264897E+03  0.268497E+03  0.300968E+03
  0.850000E-03  0.500000E-04  0.101508E+03  0.339509E+01  0.415907E+24  0.193397E-01  0.285856E+03  0.285061E+03  0.300386E+03  0.164132E+04  0.294654E+00  0.274311E-05  0.170673E+09  0.354920E+32  0.998869E+00  0.285868E+03  0.285097E+03  0.300397E+03  0.113102E-02  0.275021E+03  0.253204E+03  0.277321E+03
  0.950000E-03  0.500000E-04  0.103905E+03  0.914373E+00  0.401729E+24  0.186804E-01  0.286933E+03  0.283691E+03  0.300147E+03  0.159134E+04  0.300888E+00  0.284259E-05  0.165200E+09  0.331827E+32  0.999442E+00  0.286950E+03  0.283699E+03  0.300151E+03  0.557586E-03  0.256078E+03  0.269656E+03  0.292301E+03
  0.105000E-02  0.500000E-04  0.104649E+03  0.333749E+01  0.383348E+24  0.178257E-01  0.290781E+03  0.286362E+03  0.300533E+03  0.153889E+04  0.301173E+00  0.298883E-05  0.157342E+09  0.301583E+32  0.999310E+00  0.290796E+03  0.286389E+03  0.300539E+03  0.690229E-03  0.269300E+03  0.248117E+03  0.285659E+03
  0.115000E-02  0.500000E-04  0.101889E+03  0.146498E+01  0.373921E+24  0.173873E-01  0.291119E+03  0.286064E+03  0.300632E+03  0.150279E+04  0.292940E+00  0.306507E-05  0.153049E+09  0.286141E+32  0.999369E+00  0.291121E+03  0.286123E+03  0.300638E+03  0.630878E-03  0.287404E+03  0.192535E+03  0.273180E+03
  0.125000E-02  0.500000E-04  0.101803E+03  0.882052E+00  0.368246E+24  0.171234E-01  0.287550E+03  0.283880E+03  0.300216E+03  0.146184E+04  0.294484E+00  0.310272E-05  0.150296E+09  0.276729E+32  0.999899E+00  0.287544E+03  0.283888E+03  0.300216E+03  0.100747E-03  0.345626E+03  0.206344E+03  0.296478E+03
  0.135000E-02  0.500000E-04  0.102158E+03 -0.247240E+01  0.363814E+24  0.169173E-01  0.288829E+03  0.285781E+03  0.299795E+03  0.145067E+04  0.294930E+00  0.314401E-05  0.148778E+09  0.270637E+32  0.999511E+00  0.288819E+03  0.285790E+03  0.299799E+03  0.488709E-03  0.309428E+03  0.268904E+03  0.254640E+03
  0.145000E-02  0.500000E-04  0.998436E+02  0.303974E+01  0.350935E+24  0.163185E-01  0.295503E+03  0.293690E+03  0.300430E+03  0.143165E+04  0.285024E+00  0.327806E-05  0.144283E+09  0.253170E+32  0.999114E+00  0.295514E+03  0.293715E+03  0.300435E+03  0.885628E-03  0.283086E+03  0.264883E+03  0.291716E+03
  0.155000E-02  0.500000E-04  0.100494E+03  0.438334E+01  0.336472E+24  0.156459E-01  0.294168E+03  0.291325E+03  0.300642E+03  0.136645E+04  0.287671E+00  0.341509E-05  0.138084E+09  0.232308E+32  0.998479E+00  0.294124E+03  0.291292E+03  0.300647E+03  0.152077E-02  0.322590E+03  0.312756E+03  0.296866E+03
  0.165000E-02  0.500000E-04  0.100402E+03 -0.382382E+01  0.329541E+24  0.153237E-01  0.299104E+03  0.295322E+03  0.300476E+03  0.136076E+04  0.284963E+00  0.350146E-05  0.136488E+09  0.224892E+32  0.997967E+00  0.299068E+03  0.295363E+03  0.300492E+03  0.203281E-02  0.316788E+03  0.275136E+03  0.288918E+03
  0.175000E-02  0.500000E-04  0.103095E+03 -0.109799E+01  0.325795E+24  0.151495E-01  0.295699E+03  0.292362E+03  0.300789E+03  0.132997E+04  0.294088E+00  0.353159E-05  0.133822E+09  0.217993E+32  0.995028E+00  0.295608E+03  0.292267E+03  0.300797E+03  0.497181E-02  0.313936E+03  0.311293E+03  0.298871E+03
  0.185000E-02  0.500000E-04  0.983834E+02 -0.935719E-01  0.326019E+24  0.151599E-01  0.291996E+03  0.291070E+03  0.299316E+03  0.131422E+04  0.282407E+00  0.351806E-05  0.133306E+09  0.217302E+32  0.990737E+00  0.292031E+03  0.291162E+03  0.299387E+03  0.926258E-02  0.288196E+03  0.281224E+03  0.287726E+03
  0.195000E-02  0.500000E-04  0.941123E+02  0.517874E+00  0.319497E+24  0.148566E-01  0.290892E+03  0.290106E+03  0.299477E+03  0.128306E+04  0.270663E+00  0.358648E-05  0.131082E+09  0.209401E+32  0.991028E+00  0.290822E+03  0.290149E+03  0.299536E+03  0.897186E-02  0.298537E+03  0.285355E+03  0.290538E+03
  0.205000E-02  0.500000E-04  0.998369E+02 -0.188824E+01  0.306302E+24  0.142430E-01  0.297836E+03  0.294747E+03  0.299570E+03  0.125944E+04  0.283806E+00  0.376311E-05  0.126003E+09  0.192975E+32  0.988683E+00  0.297832E+03  0.294721E+03  0.299655E+03  0.113169E-01  0.298144E+03  0.297035E+03  0.288654E+03
  0.215000E-02  0.500000E-04  0.983770E+02  0.508304E+00  0.302286E+24  0.140563E-01  0.294808E+03  0.292786E+03  0.299987E+03  0.123029E+04  0.281042E+00  0.380337E-05  0.123402E+09  0.186514E+32  0.984705E+00  0.294932E+03  0.292794E+03  0.300121E+03  0.152950E-01  0.286808E+03  0.292282E+03  0.285242E+03
  0.225000E-02  0.500000E-04  0.965283E+02 -0.233221E+01  0.306553E+24  0.142547E-01  0.294802E+03  0.295800E+03  0.300084E+03  0.124763E+04  0.275840E+00  0.375041E-05  0.126647E+09  0.194120E+32  0.977985E+00  0.295001E+03  0.295965E+03  0.300274E+03  0.220146E-01  0.285970E+03  0.288481E+03  0.285984E+03
  0.235000E-02  0.500000E-04  0.947839E+02  0.341220E+01  0.296172E+24  0.137720E-01  0.292642E+03  0.289082E+03  0.299284E+03  0.119654E+04  0.271950E+00  0.387475E-05  0.121968E+09  0.180617E+32  0.969991E+00  0.292530E+03  0.289176E+03  0.299362E+03  0.300091E-01  0.296254E+03  0.286055E+03  0.296501E+03
  0.245000E-02  0.500000E-04  0.884142E+02  0.134097E+01  0.293262E+24  0.136367E-01  0.293661E+03  0.292588E+03  0.299587E+03  0.118892E+04  0.253099E+00  0.391658E-05  0.120471E+09  0.176648E+32  0.975252E+00  0.293519E+03  0.292413E+03  0.299744E+03  0.247476E-01  0.299223E+03  0.299486E+03  0.291192E+03
  0.255000E-02  0.500000E-04  0.924640E+02 -0.108338E+01  0.289703E+24  0.134712E-01  0.292115E+03  0.290352E+03  0.299762E+03  0.116830E+04  0.265379E+00  0.395948E-05  0.118617E+09  0.171818E+32  0.971230E+00  0.292204E+03  0.290560E+03  0.300000E+03  0.287703E-01  0.289125E+03  0.283305E+03  0.286833E+03
  0.265000E-02  0.500000E-04  0.942944E+02 -0.316597E+01  0.285784E+24  0.132889E-01  0.292762E+03  0.290922E+03  0.299918E+03  0.115505E+04  0.270467E+00  0.401600E-05  0.117122E+09  0.167358E+32  0.969218E+00  0.292872E+03  0.291116E+03  0.300156E+03  0.307815E-01  0.289293E+03  0.284804E+03  0.288616E+03
  0.275000E-02  0.500000E-04  0.935485E+02  0.279797E+01  0.282427E+24  0.131328E-01  0.296643E+03  0.292739E+03  0.299898E+03  0.115661E+04  0.266536E+00  0.407714E-05  0.115455E+09  0.163037E+32  0.970635E+00  0.296762E+03  0.292402E+03  0.300098E+03  0.293653E-01  0.292683E+03  0.303884E+03  0.290666E+03
  0.285000E-02  0.500000E-04  0.890676E+02 -0.173239E+01  0.278080E+24  0.129307E-01  0.294706E+03  0.294409E+03  0.299899E+03  0.113138E+04  0.254536E+00  0.413410E-05  0.113795E+09  0.158220E+32  0.974611E+00  0.294774E+03  0.294280E+03  0.300113E+03  0.253890E-01  0.292110E+03  0.299352E+03  0.286532E+03
  0.295000E-02  0.500000E-04  0.876210E+02  0.215790E+01  0.276995E+24  0.128803E-01  0.294074E+03  0.292384E+03  0.300177E+03  0.112455E+04  0.250699E+00  0.414806E-05  0.113780E+09  0.157583E+32  0.968474E+00  0.294083E+03  0.292073E+03  0.300408E+03  0.315256E-01  0.293809E+03  0.301940E+03  0.289842E+03
  0.305000E-02  0.500000E-04  0.842284E+02 -0.164438E+01  0.276435E+24  0.128542E-01  0.292736E+03  0.291508E+03  0.300319E+03  0.111717E+04  0.241515E+00  0.415172E-05  0.113240E+09  0.156518E+32  0.961989E+00  0.292851E+03  0.291340E+03  0.300605E+03  0.380112E-01  0.289827E+03  0.295752E+03  0.289629E+03
  0.315000E-02  0.500000E-04  0.809995E+02  0.332214E+01  0.277914E+24  0.129230E-01  0.291165E+03  0.285129E+03  0.300141E+03  0.111712E+04  0.233034E+00  0.412407E-05  0.112990E+09  0.157008E+32  0.954325E+00  0.291432E+03  0.285814E+03  0.300484E+03  0.456749E-01  0.285600E+03  0.270799E+03  0.289582E+03
  0.325000E-02  0.500000E-04  0.770127E+02  0.205589E+01  0.275275E+24  0.128003E-01  0.286476E+03  0.285925E+03  0.298998E+03  0.108869E+04  0.223262E+00  0.414675E-05  0.112562E+09  0.154927E+32  0.960239E+00  0.286354E+03  0.286466E+03  0.299204E+03  0.397608E-01  0.289423E+03  0.272838E+03  0.292721E+03
  0.335000E-02  0.500000E-04  0.777471E+02 -0.951005E+00  0.268315E+24  0.124766E-01  0.291869E+03  0.288393E+03  0.298821E+03  0.108114E+04  0.223236E+00  0.427421E-05  0.109479E+09  0.146875E+32  0.954168E+00  0.291899E+03  0.288633E+03  0.299122E+03  0.458325E-01  0.291253E+03  0.283404E+03  0.290238E+03
  0.345000E-02  0.500000E-04  0.742853E+02  0.797339E+01  0.265123E+24  0.123282E-01  0.289687E+03  0.288015E+03  0.299210E+03  0.106029E+04  0.215312E+00  0.431754E-05  0.108384E+09  0.143676E+32  0.955850E+00  0.289417E+03  0.287994E+03  0.299551E+03  0.441505E-01  0.295537E+03  0.288472E+03  0.288029E+03
  0.355000E-02  0.500000E-04  0.744095E+02 -0.218744E+01  0.260837E+24  0.121289E-01  0.291693E+03  0.288466E+03  0.299348E+03  0.105037E+04  0.213794E+00  0.439608E-05  0.107481E+09  0.140176E+32  0.944854E+00  0.291575E+03  0.288401E+03  0.299777E+03  0.551464E-01  0.293714E+03  0.289580E+03  0.288199E+03
  0.365000E-02  0.500000E-04  0.785332E+02 -0.130776E+01  0.260447E+24  0.121108E-01  0.294953E+03  0.293058E+03  0.299210E+03  0.106053E+04  0.224325E+00  0.441491E-05  0.106762E+09  0.139029E+32  0.944486E+00  0.294811E+03  0.293399E+03  0.299583E+03  0.555139E-01  0.297380E+03  0.287259E+03  0.290416E+03
  0.375000E-02  0.500000E-04  0.758314E+02  0.519652E+01  0.262752E+24  0.122180E-01  0.296524E+03  0.294745E+03  0.298972E+03  0.107561E+04  0.216510E+00  0.438199E-05  0.107899E+09  0.141753E+32  0.946806E+00  0.296256E+03  0.294385E+03  0.299279E+03  0.531940E-01  0.301287E+03  0.301155E+03  0.291852E+03
  0.385000E-02  0.500000E-04  0.719251E+02 -0.257186E+00  0.262649E+24  0.122132E-01  0.291636E+03  0.290792E+03  0.299510E+03  0.105746E+04  0.206588E+00  0.436551E-05  0.108147E+09  0.142024E+32  0.937676E+00  0.292205E+03  0.290923E+03  0.299860E+03  0.623243E-01  0.283076E+03  0.288821E+03  0.292749E+03
  0.395000E-02  0.500000E-04  0.769913E+02  0.173368E+01  0.263871E+24  0.122700E-01  0.292084E+03  0.287616E+03  0.300020E+03  0.106402E+04  0.221024E+00  0.434698E-05  0.108283E+09  0.142864E+32  0.934736E+00  0.291944E+03  0.287317E+03  0.300334E+03  0.652640E-01  0.294098E+03  0.291895E+03  0.294502E+03
  0.405000E-02  0.500000E-04  0.807176E+02 -0.384106E+00  0.263550E+24  0.122551E-01  0.296193E+03  0.295845E+03  0.299885E+03  0.107767E+04  0.230053E+00  0.436750E-05  0.108667E+09  0.143195E+32  0.934970E+00  0.295764E+03  0.295468E+03  0.300287E+03  0.650302E-01  0.302366E+03  0.301275E+03  0.292196E+03
  0.415000E-02  0.500000E-04  0.840660E+02  0.114340E+01  0.261064E+24  0.121395E-01  0.300698E+03  0.298252E+03  0.299858E+03  0.108375E+04  0.237814E+00  0.442577E-05  0.108484E+09  0.141606E+32  0.929798E+00  0.300711E+03  0.298066E+03  0.300025E+03  0.702023E-01  0.300532E+03  0.300715E+03  0.297448E+03
  0.425000E-02  0.500000E-04  0.821256E+02 -0.335985E+00  0.270501E+24  0.125783E-01  0.293172E+03  0.295385E+03  0.298777E+03  0.109481E+04  0.235268E+00  0.424438E-05  0.112013E+09  0.151499E+32  0.927400E+00  0.293210E+03  0.295303E+03  0.299076E+03  0.725999E-01  0.292676E+03  0.296427E+03  0.294262E+03
  0.435000E-02  0.500000E-04  0.817592E+02  0.479893E+01  0.268364E+24  0.124789E-01  0.290947E+03  0.290747E+03  0.298726E+03  0.107792E+04  0.235515E+00  0.427004E-05  0.110447E+09  0.148200E+32  0.934535E+00  0.290914E+03  0.291374E+03  0.298986E+03  0.654651E-01  0.291421E+03  0.281792E+03  0.294343E+03
  0.445000E-02  0.500000E-04  0.800511E+02 -0.714793E+00  0.261112E+24  0.121417E-01  0.292971E+03  0.288352E+03  0.299244E+03  0.105609E+04  0.229411E+00  0.439624E-05  0.107482E+09  0.140324E+32  0.931473E+00  0.293217E+03  0.288183E+03  0.299505E+03  0.685272E-01  0.289624E+03  0.290653E+03  0.295114E+03
  0.455000E-02  0.500000E-04  0.784959E+02  0.329866E+01  0.263075E+24  0.122330E-01  0.291866E+03  0.289651E+03  0.299042E+03  0.106002E+04  0.225569E+00  0.435932E-05  0.107518E+09  0.141427E+32  0.920213E+00  0.292049E+03  0.289982E+03  0.299320E+03  0.797873E-01  0.289761E+03  0.285838E+03  0.295364E+03
  0.465000E-02  0.500000E-04  0.801135E+02 -0.870482E+00  0.260349E+24  0.121062E-01  0.295973E+03  0.295272E+03  0.299369E+03  0.106379E+04  0.228427E+00  0.442039E-05  0.107138E+09  0.139466E+32  0.914392E+00  0.296119E+03  0.295198E+03  0.299493E+03  0.856077E-01  0.294411E+03  0.296062E+03  0.297980E+03
  0.475000E-02  0.500000E-04  0.812626E+02  0.180728E+01  0.260691E+24  0.121221E-01  0.299228E+03  0.299005E+03  0.298546E+03  0.107690E+04  0.230483E+00  0.442667E-05  0.107787E+09  0.140496E+32  0.904374E+00  0.298967E+03  0.299188E+03  0.298633E+03  0.956264E-01  0.301693E+03  0.297274E+03  0.297705E+03
  0.485000E-02  0.500000E-04  0.805703E+02 -0.243467E+01  0.262083E+24  0.121868E-01  0.296595E+03  0.295974E+03  0.300057E+03  0.107313E+04  0.229579E+00  0.439345E-05  0.108298E+09  0.141916E+32  0.909678E+00  0.296620E+03  0.296479E+03  0.300476E+03  0.903217E-01  0.296338E+03  0.290884E+03  0.294934E+03
  0.495000E-02  0.500000E-04  0.831499E+02  0.439602E+00  0.260317E+24  0.121047E-01  0.300936E+03  0.299277E+03  0.300307E+03  0.108150E+04  0.235111E+00  0.443933E-05  0.108160E+09  0.140779E+32  0.885852E+00  0.300269E+03  0.299239E+03  0.300771E+03  0.114148E+00  0.306113E+03  0.299573E+03  0.296061E+03
  0.505000E-02  0.500000E-04  0.839131E+02  0.221930E+01  0.255872E+24  0.118981E-01  0.307537E+03  0.301866E+03  0.299718E+03  0.108635E+04  0.234787E+00  0.454103E-05  0.105270E+09  0.134678E+32  0.889928E+00  0.307749E+03  0.302097E+03  0.300205E+03  0.110072E+00  0.305823E+03  0.299996E+03  0.295001E+03
  0.515000E-02  0.500000E-04  0.824907E+02 -0.276114E+01  0.256406E+24  0.119229E-01  0.301603E+03  0.297751E+03  0.299564E+03  0.106761E+04  0.233116E+00  0.450956E-05  0.106208E+09  0.136162E+32  0.902131E+00  0.301349E+03  0.297828E+03  0.300029E+03  0.978689E-01  0.303948E+03  0.297047E+03  0.294333E+03
  0.525000E-02  0.500000E-04  0.793588E+02  0.454567E+01  0.257566E+24  0.119768E-01  0.298097E+03  0.294351E+03  0.300083E+03  0.105997E+04  0.225823E+00  0.447614E-05  0.105937E+09  0.136429E+32  0.888290E+00  0.298065E+03  0.293873E+03  0.300493E+03  0.111710E+00  0.298349E+03  0.298146E+03  0.296319E+03
  0.535000E-02  0.500000E-04  0.746131E+02  0.165844E+01  0.255904E+24  0.118995E-01  0.297997E+03  0.298016E+03  0.299771E+03  0.105278E+04  0.212060E+00  0.450483E-05  0.105410E+09  0.134874E+32  0.897379E+00  0.298437E+03  0.298129E+03  0.300130E+03  0.102621E+00  0.294150E+03  0.297025E+03  0.296175E+03
  0.545000E-02  0.500000E-04  0.746475E+02 -0.172217E+01  0.248137E+24  0.115383E-01  0.301462E+03  0.301740E+03  0.299327E+03  0.103270E+04  0.210938E+00  0.465929E-05  0.102106E+09  0.126681E+32  0.900060E+00  0.301678E+03  0.301693E+03  0.299651E+03  0.999399E-01  0.299518E+03  0.302162E+03  0.296011E+03