TITLE=" Box                                                                     /                                                                         "
VARIABLES="X",        "Y",      "Vx   ",      "Vy   ",      "Nden ",      "Rho  ",      "Ttrn ",      "Trot ",      "Tvib ",      "Press",      "Ma   ",      "Lambd",      "Relac",      "Coll ",      "frac1",      "Ttrn1",      "Trot1",      "Tvib1",      "frac2",      "Ttrn2",      "Trot2",      "Tvib2",      "rho_dif",      "Ma_dif,      "Pa_dif"
ZONE T="DSMC,BG", I=  200, J=   50, F=POINT
-0.395000E-02	0.500000E-04	0.804095E+03	0.244460E+02	0.128646E+25	0.598204E-01	0.989231E+02	0.834242E+02	0.232900E+03	0.175688E+04	0.396732E+01	0.680191E-06	0.383525E+09	0.246695E+33	0.000000E+00	0.000000E+00	0.000000E+00	0.000000E+00	0.100000E+01	0.989231E+02	0.834242E+02	0.232900E+03	2.560931E-01	1.940217E-01	1.006961E-01
-0.385000E-02	0.500000E-04	0.744242E+03	0.663386E+02	0.139040E+25	0.646537E-01	0.142380E+03	0.114963E+03	0.245304E+03	0.273299E+04	0.307147E+01	0.689327E-06	0.476012E+09	0.330924E+33	0.000000E+00	0.000000E+00	0.000000E+00	0.000000E+00	0.100000E+01	0.142380E+03	0.114963E+03	0.245304E+03	5.705702E-02	1.117073E+00	1.716576E+00
-0.375000E-02	0.500000E-04	0.715576E+03	0.875404E+02	0.138897E+25	0.645873E-01	0.158758E+03	0.129520E+03	0.250055E+03	0.304424E+04	0.280642E+01	0.709076E-06	0.529361E+09	0.367634E+33	0.000000E+00	0.000000E+00	0.000000E+00	0.000000E+00	0.100000E+01	0.158758E+03	0.129520E+03	0.250055E+03	3.074984E-01	2.397380E-01	1.165457E-01
-0.365000E-02	0.500000E-04	0.676709E+03	0.739850E+02	0.113099E+25	0.525908E-01	0.184481E+03	0.148068E+03	0.256776E+03	0.288043E+04	0.245836E+01	0.904136E-06	0.466314E+09	0.263697E+33	0.000000E+00	0.000000E+00	0.000000E+00	0.000000E+00	0.100000E+01	0.184481E+03	0.148068E+03	0.256776E+03	9.708283E-01	1.106376E+00	2.251467E+00
-0.355000E-02	0.500000E-04	0.631241E+03	0.533906E+02	0.875389E+24	0.407056E-01	0.210242E+03	0.168678E+03	0.263653E+03	0.254080E+04	0.214300E+01	0.120693E-05	0.362918E+09	0.158848E+33	0.000000E+00	0.000000E+00	0.000000E+00	0.000000E+00	0.100000E+01	0.210242E+03	0.168678E+03	0.263653E+03	3.418736E-01	9.089183E-01	1.678567E+00
-0.345000E-02	0.500000E-04	0.583455E+03	0.379591E+02	0.721022E+24	0.335275E-01	0.235645E+03	0.189496E+03	0.269833E+03	0.234561E+04	0.186825E+01	0.150771E-05	0.296602E+09	0.106928E+33	0.000000E+00	0.000000E+00	0.000000E+00	0.000000E+00	0.100000E+01	0.235645E+03	0.189496E+03	0.269833E+03	7.754527E-03	3.195742E-01	2.356105E-01
-0.335000E-02	0.500000E-04	0.542229E+03	0.298761E+02	0.623728E+24	0.290034E-01	0.253094E+03	0.207809E+03	0.274360E+03	0.217935E+04	0.167432E+01	0.177430E-05	0.256286E+09	0.799265E+32	0.000000E+00	0.000000E+00	0.000000E+00	0.000000E+00	0.100000E+01	0.253094E+03	0.207809E+03	0.274360E+03	8.973518E-01	2.607437E-01	5.835224E-01
-0.325000E-02	0.500000E-04	0.504471E+03	0.230068E+02	0.552026E+24	0.256692E-01	0.265745E+03	0.220827E+03	0.277739E+03	0.202522E+04	0.151948E+01	0.202936E-05	0.225238E+09	0.621687E+32	0.000000E+00	0.000000E+00	0.000000E+00	0.000000E+00	0.100000E+01	0.265745E+03	0.220827E+03	0.277739E+03	1.852645E-01	1.594067E+00	1.409107E+00
-0.315000E-02	0.500000E-04	0.468628E+03	0.199695E+02	0.505680E+24	0.235141E-01	0.276786E+03	0.233682E+03	0.280528E+03	0.193228E+04	0.138290E+01	0.223801E-05	0.204369E+09	0.516727E+32	0.000000E+00	0.000000E+00	0.000000E+00	0.000000E+00	0.100000E+01	0.276786E+03	0.233682E+03	0.280528E+03	8.057302E-01	1.051855E+00	6.622105E-02
-0.305000E-02	0.500000E-04	0.434653E+03	0.184599E+02	0.472967E+24	0.219930E-01	0.286661E+03	0.245158E+03	0.282629E+03	0.187175E+04	0.126035E+01	0.241387E-05	0.191624E+09	0.453160E+32	0.000000E+00	0.000000E+00	0.000000E+00	0.000000E+00	0.100000E+01	0.286661E+03	0.245158E+03	0.282629E+03	2.856576E+00	2.415815E+00	4.040476E+00
-0.295000E-02	0.500000E-04	0.410063E+03	0.153805E+02	0.438867E+24	0.204073E-01	0.293206E+03	0.256518E+03	0.284823E+03	0.177646E+04	0.117546E+01	0.261615E-05	0.178944E+09	0.392663E+32	0.000000E+00	0.000000E+00	0.000000E+00	0.000000E+00	0.100000E+01	0.293206E+03	0.256518E+03	0.284822E+03	9.675489E-01	3.723617E+00	2.796868E+00
-0.285000E-02	0.500000E-04	0.392986E+03	0.713787E+01	0.410249E+24	0.190766E-01	0.292553E+03	0.257994E+03	0.285871E+03	0.165692E+04	0.112716E+01	0.279709E-05	0.167543E+09	0.343673E+32	0.000000E+00	0.000000E+00	0.000000E+00	0.000000E+00	0.100000E+01	0.292553E+03	0.257994E+03	0.285871E+03	2.487977E+00	1.208979E+00	2.490739E+00
-0.275000E-02	0.500000E-04	0.370896E+03	0.978617E+01	0.400781E+24	0.186363E-01	0.296782E+03	0.266431E+03	0.286765E+03	0.164208E+04	0.105639E+01	0.287346E-05	0.162933E+09	0.326502E+32	0.000000E+00	0.000000E+00	0.000000E+00	0.000000E+00	0.100000E+01	0.296782E+03	0.266431E+03	0.286765E+03	9.372972E-01	5.371801E-01	1.563727E+00
-0.265000E-02	0.500000E-04	0.355730E+03	0.910826E+01	0.387120E+24	0.180011E-01	0.300039E+03	0.269752E+03	0.287180E+03	0.160351E+04	0.100766E+01	0.298299E-05	0.158179E+09	0.306171E+32	0.000000E+00	0.000000E+00	0.000000E+00	0.000000E+00	0.100000E+01	0.300039E+03	0.269752E+03	0.287180E+03	4.476390E-01	4.050688E-01	4.782191E-01
-0.255000E-02	0.500000E-04	0.342910E+03	0.590446E+01	0.372512E+24	0.173218E-01	0.301993E+03	0.272397E+03	0.287956E+03	0.155305E+04	0.968026E+00	0.310500E-05	0.152836E+09	0.284667E+32	0.000000E+00	0.000000E+00	0.000000E+00	0.000000E+00	0.100000E+01	0.301993E+03	0.272397E+03	0.287956E+03	6.982978E-02	1.876292E+00	7.633415E-01
-0.245000E-02	0.500000E-04	0.329318E+03	0.735860E+01	0.359089E+24	0.166977E-01	0.303598E+03	0.274250E+03	0.288640E+03	0.150505E+04	0.927288E+00	0.322534E-05	0.147100E+09	0.264110E+32	0.000000E+00	0.000000E+00	0.000000E+00	0.000000E+00	0.100000E+01	0.303598E+03	0.274250E+03	0.288640E+03	2.422425E-01	2.761230E+00	1.263214E-01
-0.235000E-02	0.500000E-04	0.316859E+03	0.632803E+01	0.351359E+24	0.163382E-01	0.302102E+03	0.276051E+03	0.289457E+03	0.146539E+04	0.894369E+00	0.329223E-05	0.142923E+09	0.251087E+32	0.000000E+00	0.000000E+00	0.000000E+00	0.000000E+00	0.100000E+01	0.302102E+03	0.276051E+03	0.289457E+03	6.667541E-01	1.376405E+00	2.591227E+00
-0.225000E-02	0.500000E-04	0.303011E+03	0.501016E+01	0.347875E+24	0.161762E-01	0.301742E+03	0.277264E+03	0.289867E+03	0.144913E+04	0.855737E+00	0.332421E-05	0.141564E+09	0.246233E+32	0.000000E+00	0.000000E+00	0.000000E+00	0.000000E+00	0.100000E+01	0.301742E+03	0.277264E+03	0.289867E+03	3.061705E+00	1.828784E+00	1.735971E+00
-0.215000E-02	0.500000E-04	0.291914E+03	0.603244E+01	0.340392E+24	0.158282E-01	0.304968E+03	0.281395E+03	0.289792E+03	0.143312E+04	0.820089E+00	0.340634E-05	0.139379E+09	0.237217E+32	0.000000E+00	0.000000E+00	0.000000E+00	0.000000E+00	0.100000E+01	0.304968E+03	0.281395E+03	0.289792E+03	9.840832E-01	1.991938E+00	8.097505E-02
-0.205000E-02	0.500000E-04	0.287922E+03	0.135733E+01	0.328427E+24	0.152719E-01	0.306172E+03	0.284381E+03	0.290089E+03	0.138821E+04	0.807118E+00	0.353391E-05	0.135333E+09	0.222236E+32	0.000000E+00	0.000000E+00	0.000000E+00	0.000000E+00	0.100000E+01	0.306172E+03	0.284381E+03	0.290089E+03	5.511261E-01	1.406559E+00	1.914303E-01
-0.195000E-02	0.500000E-04	0.278732E+03	0.406461E+01	0.326549E+24	0.151845E-01	0.307504E+03	0.286039E+03	0.290610E+03	0.138627E+04	0.779736E+00	0.355810E-05	0.134333E+09	0.219331E+32	0.000000E+00	0.000000E+00	0.000000E+00	0.000000E+00	0.100000E+01	0.307504E+03	0.286039E+03	0.290610E+03	2.664795E+00	1.464211E+00	1.482150E+00
-0.185000E-02	0.500000E-04	0.266031E+03	0.518790E+01	0.325714E+24	0.151457E-01	0.309788E+03	0.289734E+03	0.291000E+03	0.139299E+04	0.741520E+00	0.357382E-05	0.133829E+09	0.217949E+32	0.000000E+00	0.000000E+00	0.000000E+00	0.000000E+00	0.100000E+01	0.309788E+03	0.289734E+03	0.291000E+03	5.973273E-01	1.110426E+00	2.334930E+00
-0.175000E-02	0.500000E-04	0.253461E+03	0.765088E+01	0.319242E+24	0.148448E-01	0.311831E+03	0.296677E+03	0.291609E+03	0.137432E+04	0.704354E+00	0.365227E-05	0.132004E+09	0.210706E+32	0.000000E+00	0.000000E+00	0.000000E+00	0.000000E+00	0.100000E+01	0.311831E+03	0.296677E+03	0.291609E+03	3.297031E+00	6.661342E+00	5.426696E+00
-0.165000E-02	0.500000E-04	0.246170E+03	0.309459E+01	0.313284E+24	0.145677E-01	0.309209E+03	0.290703E+03	0.292146E+03	0.133733E+04	0.686727E+00	0.371387E-05	0.128741E+09	0.201663E+32	0.000000E+00	0.000000E+00	0.000000E+00	0.000000E+00	0.100000E+01	0.309209E+03	0.290703E+03	0.292146E+03	9.577942E-01	3.944649E+00	7.923101E-02
-0.155000E-02	0.500000E-04	0.223846E+03	0.623702E+01	0.326873E+24	0.151996E-01	0.310337E+03	0.293047E+03	0.292490E+03	0.140043E+04	0.623507E+00	0.356273E-05	0.134929E+09	0.220522E+32	0.000000E+00	0.000000E+00	0.000000E+00	0.000000E+00	0.100000E+01	0.310337E+03	0.293047E+03	0.292490E+03	3.957141E+00	9.749068E+00	4.829568E+00
-0.145000E-02	0.500000E-04	0.195916E+03	0.945379E+01	0.341953E+24	0.159008E-01	0.312527E+03	0.296334E+03	0.292501E+03	0.147538E+04	0.544217E+00	0.341161E-05	0.141366E+09	0.241703E+32	0.000000E+00	0.000000E+00	0.000000E+00	0.000000E+00	0.100000E+01	0.312527E+03	0.296334E+03	0.292501E+03	1.237595E+01	2.377505E+01	1.450089E+01
-0.135000E-02	0.500000E-04	0.166665E+03	0.113606E+02	0.356760E+24	0.165893E-01	0.317563E+03	0.305388E+03	0.293349E+03	0.156407E+04	0.459808E+00	0.328310E-05	0.148534E+09	0.264955E+32	0.000000E+00	0.000000E+00	0.000000E+00	0.000000E+00	0.100000E+01	0.317563E+03	0.305388E+03	0.293349E+03	1.756174E+01	3.686783E+01	1.985185E+01
-0.125000E-02	0.500000E-04	0.131191E+03	0.964693E+01	0.375938E+24	0.174811E-01	0.317040E+03	0.310066E+03	0.293546E+03	0.164543E+04	0.362374E+00	0.311434E-05	0.157196E+09	0.295479E+32	0.335160E-04	0.353842E+03	0.245471E+03	0.287498E+03	0.999967E+00	0.317039E+03	0.310068E+03	0.293546E+03	2.376596E+01	5.833740E+01	2.630426E+01
-0.115000E-02	0.500000E-04	0.106846E+03	0.868998E+01	0.384337E+24	0.178717E-01	0.318106E+03	0.309628E+03	0.293933E+03	0.168785E+04	0.294812E+00	0.304884E-05	0.161086E+09	0.309556E+32	0.672245E-02	0.316091E+03	0.292813E+03	0.290714E+03	0.993278E+00	0.318120E+03	0.309742E+03	0.293953E+03	2.680686E+01	7.553993E+01	2.999775E+01
-0.105000E-02	0.500000E-04	0.886674E+02	0.727814E+01	0.390611E+24	0.181634E-01	0.316381E+03	0.309620E+03	0.295442E+03	0.170610E+04	0.245334E+00	0.299578E-05	0.163850E+09	0.320007E+32	0.616251E-01	0.310997E+03	0.303474E+03	0.300932E+03	0.938375E+00	0.316735E+03	0.310024E+03	0.294999E+03	2.830603E+01	8.800257E+01	3.019709E+01
-0.950000E-03	0.500000E-04	0.780225E+02	0.278435E+01	0.411632E+24	0.191409E-01	0.308222E+03	0.305287E+03	0.296068E+03	0.175155E+04	0.218125E+00	0.282429E-05	0.172504E+09	0.355042E+32	0.228635E+00	0.307364E+03	0.306732E+03	0.301807E+03	0.771365E+00	0.308476E+03	0.304859E+03	0.293821E+03	3.649646E+01	9.613120E+01	3.624102E+01
-0.850000E-03	0.500000E-04	0.724303E+02	0.476155E+01	0.416096E+24	0.193484E-01	0.307779E+03	0.304946E+03	0.296403E+03	0.176800E+04	0.202945E+00	0.279299E-05	0.174184E+09	0.362386E+32	0.435301E+00	0.306442E+03	0.305147E+03	0.300012E+03	0.564699E+00	0.308810E+03	0.304790E+03	0.292819E+03	3.729595E+01	9.943286E+01	3.758651E+01
-0.750000E-03	0.500000E-04	0.712299E+02	0.316844E+01	0.418877E+24	0.194778E-01	0.303721E+03	0.301363E+03	0.296208E+03	0.175635E+04	0.200676E+00	0.276525E-05	0.175758E+09	0.368105E+32	0.553737E+00	0.302807E+03	0.301534E+03	0.299110E+03	0.446263E+00	0.304854E+03	0.301151E+03	0.291490E+03	3.791713E+01	9.898546E+01	3.717553E+01
-0.650000E-03	0.500000E-04	0.676563E+02	0.333422E+01	0.431398E+24	0.200600E-01	0.299971E+03	0.297007E+03	0.296735E+03	0.178652E+04	0.191839E+00	0.267666E-05	0.178663E+09	0.385374E+32	0.648717E+00	0.298467E+03	0.297206E+03	0.299030E+03	0.351283E+00	0.302750E+03	0.296640E+03	0.291119E+03	4.166709E+01	1.019654E+02	3.949755E+01
-0.550000E-03	0.500000E-04	0.653219E+02	0.188118E+01	0.435226E+24	0.202380E-01	0.299156E+03	0.297002E+03	0.297087E+03	0.179747E+04	0.185323E+00	0.265132E-05	0.180712E+09	0.393253E+32	0.718778E+00	0.298244E+03	0.295776E+03	0.299136E+03	0.281222E+00	0.301488E+03	0.300137E+03	0.289767E+03	4.197859E+01	1.031312E+02	3.811098E+01
-0.450000E-03	0.500000E-04	0.659615E+02	0.242867E+01	0.436444E+24	0.202947E-01	0.296828E+03	0.296190E+03	0.298159E+03	0.178848E+04	0.187920E+00	0.263876E-05	0.181601E+09	0.396293E+32	0.765828E+00	0.296099E+03	0.296145E+03	0.299893E+03	0.234172E+00	0.299214E+03	0.296337E+03	0.290132E+03	4.203433E+01	1.002211E+02	3.819405E+01
-0.350000E-03	0.500000E-04	0.647967E+02	0.291413E+01	0.441991E+24	0.205526E-01	0.298110E+03	0.295819E+03	0.297784E+03	0.181903E+04	0.184266E+00	0.260846E-05	0.183338E+09	0.405167E+32	0.815443E+00	0.298221E+03	0.295058E+03	0.299332E+03	0.184557E+00	0.297621E+03	0.299182E+03	0.287189E+03	4.489611E+01	9.977168E+01	4.102849E+01
-0.250000E-03	0.500000E-04	0.604216E+02	0.377041E+01	0.436727E+24	0.203078E-01	0.296259E+03	0.293518E+03	0.298341E+03	0.178620E+04	0.172521E+00	0.263579E-05	0.180313E+09	0.393738E+32	0.844076E+00	0.296272E+03	0.293730E+03	0.299574E+03	0.155924E+00	0.296189E+03	0.292369E+03	0.288372E+03	4.533514E+01	1.032635E+02	4.083974E+01
-0.150000E-03	0.500000E-04	0.573299E+02	0.385489E+01	0.422339E+24	0.196388E-01	0.300764E+03	0.298447E+03	0.298111E+03	0.175362E+04	0.162513E+00	0.273589E-05	0.174664E+09	0.368837E+32	0.832123E+00	0.300664E+03	0.298395E+03	0.299181E+03	0.167877E+00	0.301257E+03	0.298707E+03	0.291027E+03	4.508979E+01	1.090787E+02	4.324414E+01
-0.499999E-04	0.500000E-04	0.625582E+02	0.193522E+01	0.416591E+24	0.193715E-01	0.301121E+03	0.298813E+03	0.298536E+03	0.173181E+04	0.176914E+00	0.277446E-05	0.173271E+09	0.360916E+32	0.832717E+00	0.300958E+03	0.299196E+03	0.299622E+03	0.167283E+00	0.301928E+03	0.296905E+03	0.291268E+03	4.342707E+01	1.029163E+02	4.205631E+01
0.499999E-04	0.500000E-04	0.607782E+02	0.332162E+01	0.418814E+24	0.194748E-01	0.297304E+03	0.295356E+03	0.299229E+03	0.171898E+04	0.173155E+00	0.275094E-05	0.172920E+09	0.362106E+32	0.869407E+00	0.296626E+03	0.295011E+03	0.300059E+03	0.130593E+00	0.301820E+03	0.297652E+03	0.291839E+03	4.105459E+01	1.015778E+02	3.888491E+01
0.150000E-03	0.500000E-04	0.659847E+02	0.144993E+01	0.413529E+24	0.192291E-01	0.296456E+03	0.294545E+03	0.300011E+03	0.169245E+04	0.188022E+00	0.278411E-05	0.170701E+09	0.352949E+32	0.871244E+00	0.296379E+03	0.294833E+03	0.300941E+03	0.128756E+00	0.296977E+03	0.292595E+03	0.291112E+03	4.131392E+01	9.506574E+01	3.910824E+01
0.250000E-03	0.500000E-04	0.695374E+02	0.303480E+01	0.402539E+24	0.187181E-01	0.295497E+03	0.293422E+03	0.300516E+03	0.164214E+04	0.198608E+00	0.285781E-05	0.165867E+09	0.333839E+32	0.882671E+00	0.295673E+03	0.293559E+03	0.301371E+03	0.117329E+00	0.294168E+03	0.292396E+03	0.291371E+03	4.017348E+01	8.972532E+01	3.658721E+01
0.350000E-03	0.500000E-04	0.689537E+02	-0.548895E+00	0.395539E+24	0.183926E-01	0.292603E+03	0.289871E+03	0.300364E+03	0.159778E+04	0.197731E+00	0.290124E-05	0.162750E+09	0.321869E+32	0.902982E+00	0.292549E+03	0.290181E+03	0.301044E+03	0.970182E-01	0.293103E+03	0.286984E+03	0.291497E+03	3.546597E+01	8.844388E+01	3.177058E+01
0.450000E-03	0.500000E-04	0.764691E+02	0.160765E+01	0.373930E+24	0.173877E-01	0.299587E+03	0.296042E+03	0.300004E+03	0.154655E+04	0.216751E+00	0.308705E-05	0.154246E+09	0.288386E+32	0.916363E+00	0.299605E+03	0.296293E+03	0.300641E+03	0.836371E-01	0.299396E+03	0.293284E+03	0.289705E+03	3.170547E+01	8.054341E+01	2.929941E+01
0.550000E-03	0.500000E-04	0.786172E+02	0.117373E+01	0.367046E+24	0.170676E-01	0.294104E+03	0.290574E+03	0.299589E+03	0.149029E+04	0.224883E+00	0.313046E-05	0.151015E+09	0.277146E+32	0.922093E+00	0.294239E+03	0.290801E+03	0.300224E+03	0.779073E-01	0.292507E+03	0.287880E+03	0.287890E+03	2.919452E+01	7.449430E+01	2.567927E+01
0.650000E-03	0.500000E-04	0.832265E+02	0.106980E+01	0.360472E+24	0.167619E-01	0.291345E+03	0.289892E+03	0.299340E+03	0.144986E+04	0.239186E+00	0.318004E-05	0.148105E+09	0.266939E+32	0.919654E+00	0.291533E+03	0.289558E+03	0.299860E+03	0.803456E-01	0.289186E+03	0.293712E+03	0.291271E+03	2.775636E+01	6.591473E+01	2.273071E+01
0.750000E-03	0.500000E-04	0.949794E+02	-0.450764E+01	0.342690E+24	0.159351E-01	0.297175E+03	0.293406E+03	0.299960E+03	0.140593E+04	0.270553E+00	0.336167E-05	0.141240E+09	0.242008E+32	0.919589E+00	0.297206E+03	0.292609E+03	0.300547E+03	0.804110E-01	0.296821E+03	0.302519E+03	0.290306E+03	2.390350E+01	5.307152E+01	2.122688E+01
0.850000E-03	0.500000E-04	0.100852E+03	0.485215E+01	0.339574E+24	0.157902E-01	0.292267E+03	0.289147E+03	0.299700E+03	0.137014E+04	0.289693E+00	0.337842E-05	0.139321E+09	0.236550E+32	0.922873E+00	0.292383E+03	0.289472E+03	0.300305E+03	0.771270E-01	0.290881E+03	0.285260E+03	0.288792E+03	2.493323E+01	4.522073E+01	2.051905E+01
0.950000E-03	0.500000E-04	0.102040E+03	0.306715E+00	0.329295E+24	0.153122E-01	0.292421E+03	0.289239E+03	0.299978E+03	0.132936E+04	0.292690E+00	0.348434E-05	0.135201E+09	0.222604E+32	0.918248E+00	0.292606E+03	0.288780E+03	0.300625E+03	0.817518E-01	0.290348E+03	0.294394E+03	0.288959E+03	2.301323E+01	4.452946E+01	1.803510E+01
0.105000E-02	0.500000E-04	0.107831E+03	-0.202111E+00	0.311697E+24	0.144939E-01	0.291883E+03	0.290040E+03	0.300054E+03	0.125600E+04	0.309587E+00	0.367936E-05	0.126712E+09	0.197479E+32	0.927040E+00	0.292059E+03	0.289814E+03	0.300655E+03	0.729602E-01	0.289655E+03	0.292917E+03	0.288101E+03	1.877915E+01	4.054503E+01	1.365904E+01
0.115000E-02	0.500000E-04	0.105251E+03	0.209311E+01	0.310090E+24	0.144192E-01	0.292320E+03	0.289175E+03	0.300254E+03	0.125140E+04	0.302011E+00	0.369981E-05	0.126983E+09	0.196881E+32	0.918183E+00	0.292111E+03	0.288713E+03	0.300756E+03	0.818169E-01	0.294674E+03	0.294357E+03	0.292817E+03	1.957727E+01	4.309935E+01	1.458580E+01
0.125000E-02	0.500000E-04	0.104755E+03	-0.855203E+00	0.306824E+24	0.142673E-01	0.299070E+03	0.294050E+03	0.299616E+03	0.126681E+04	0.297129E+00	0.376059E-05	0.126390E+09	0.193897E+32	0.910808E+00	0.298934E+03	0.293904E+03	0.300021E+03	0.891922E-01	0.300461E+03	0.295541E+03	0.294623E+03	1.700471E+01	4.428446E+01	1.469082E+01
0.135000E-02	0.500000E-04	0.108118E+03	-0.436174E+01	0.301699E+24	0.140290E-01	0.298024E+03	0.295039E+03	0.300195E+03	0.124129E+04	0.307445E+00	0.382113E-05	0.123919E+09	0.186931E+32	0.897327E+00	0.298451E+03	0.295538E+03	0.300659E+03	0.102673E+00	0.294298E+03	0.290678E+03	0.295302E+03	1.482029E+01	4.128226E+01	1.148949E+01
0.145000E-02	0.500000E-04	0.108579E+03	0.365594E+01	0.293054E+24	0.136270E-01	0.299319E+03	0.296728E+03	0.299157E+03	0.121096E+04	0.308012E+00	0.393811E-05	0.120389E+09	0.176402E+32	0.882164E+00	0.299720E+03	0.296213E+03	0.299842E+03	0.117836E+00	0.296315E+03	0.300583E+03	0.292510E+03	1.267929E+01	4.179870E+01	8.964547E+00
0.155000E-02	0.500000E-04	0.111969E+03	-0.149679E+01	0.288559E+24	0.134180E-01	0.298095E+03	0.294213E+03	0.299313E+03	0.118751E+04	0.318128E+00	0.399536E-05	0.117701E+09	0.169818E+32	0.858972E+00	0.298803E+03	0.294310E+03	0.300008E+03	0.141028E+00	0.293784E+03	0.293624E+03	0.294107E+03	9.826734E+00	3.588791E+01	5.513780E+00
0.165000E-02	0.500000E-04	0.114706E+03	-0.539077E+00	0.284915E+24	0.132485E-01	0.299766E+03	0.294217E+03	0.299771E+03	0.117909E+04	0.324968E+00	0.405213E-05	0.116904E+09	0.166539E+32	0.829300E+00	0.299504E+03	0.293639E+03	0.300694E+03	0.170700E+00	0.301042E+03	0.297026E+03	0.294131E+03	1.060705E+01	3.132499E+01	7.026785E+00
0.175000E-02	0.500000E-04	0.111531E+03	-0.603599E+00	0.281190E+24	0.130754E-01	0.298747E+03	0.295635E+03	0.300187E+03	0.115972E+04	0.316513E+00	0.410231E-05	0.115558E+09	0.162469E+32	0.796432E+00	0.298537E+03	0.295562E+03	0.301320E+03	0.203568E+00	0.299568E+03	0.295922E+03	0.294583E+03	7.637491E+00	2.955452E+01	3.930119E+00
0.185000E-02	0.500000E-04	0.110272E+03	0.212449E+01	0.273083E+24	0.126984E-01	0.301454E+03	0.297191E+03	0.299234E+03	0.113649E+04	0.311585E+00	0.423363E-05	0.111986E+09	0.152907E+32	0.764355E+00	0.300837E+03	0.295926E+03	0.300512E+03	0.235645E+00	0.303455E+03	0.301298E+03	0.294035E+03	6.741939E+00	3.201108E+01	4.876334E+00
0.195000E-02	0.500000E-04	0.107403E+03	-0.424774E+00	0.263161E+24	0.122370E-01	0.306044E+03	0.301546E+03	0.298384E+03	0.111187E+04	0.301141E+00	0.440989E-05	0.108803E+09	0.143163E+32	0.749836E+00	0.306435E+03	0.301345E+03	0.299612E+03	0.250164E+00	0.304872E+03	0.302148E+03	0.293882E+03	2.532274E+00	3.180497E+01	1.053303E+00
0.205000E-02	0.500000E-04	0.106686E+03	-0.135089E-01	0.263378E+24	0.122471E-01	0.302724E+03	0.299508E+03	0.298547E+03	0.110071E+04	0.300763E+00	0.439426E-05	0.108863E+09	0.143361E+32	0.734880E+00	0.302386E+03	0.299380E+03	0.300002E+03	0.265120E+00	0.303661E+03	0.299864E+03	0.293470E+03	4.686338E+00	3.078081E+01	1.486376E+00
0.215000E-02	0.500000E-04	0.104327E+03	-0.165676E+00	0.261250E+24	0.121481E-01	0.302845E+03	0.299192E+03	0.298601E+03	0.109226E+04	0.294056E+00	0.443049E-05	0.107293E+09	0.140152E+32	0.726126E+00	0.302533E+03	0.296963E+03	0.300032E+03	0.273874E+00	0.303672E+03	0.305102E+03	0.293899E+03	5.215658E+00	3.334316E+01	2.305961E+00
0.225000E-02	0.500000E-04	0.106568E+03	-0.969153E+00	0.259278E+24	0.120564E-01	0.300816E+03	0.296373E+03	0.297774E+03	0.107675E+04	0.301394E+00	0.445668E-05	0.106731E+09	0.138365E+32	0.710235E+00	0.301265E+03	0.297037E+03	0.299147E+03	0.289765E+00	0.299716E+03	0.294745E+03	0.293698E+03	4.038840E+00	3.140424E+01	1.077897E-01
0.235000E-02	0.500000E-04	0.109330E+03	-0.387223E+01	0.260853E+24	0.121296E-01	0.302171E+03	0.297889E+03	0.298127E+03	0.108817E+04	0.308694E+00	0.443476E-05	0.107243E+09	0.139873E+32	0.704032E+00	0.301215E+03	0.298108E+03	0.300040E+03	0.295968E+00	0.304445E+03	0.297367E+03	0.292106E+03	2.390219E+00	2.933462E+01	4.448517E-01
0.245000E-02	0.500000E-04	0.105489E+03	0.418162E+01	0.261112E+24	0.121417E-01	0.301209E+03	0.299564E+03	0.298247E+03	0.108578E+04	0.298370E+00	0.442684E-05	0.107497E+09	0.140344E+32	0.709803E+00	0.301493E+03	0.301148E+03	0.299585E+03	0.290197E+00	0.300514E+03	0.295690E+03	0.294310E+03	4.629645E+00	3.307552E+01	8.425628E-01
0.255000E-02	0.500000E-04	0.102632E+03	0.126768E+01	0.254834E+24	0.118498E-01	0.303149E+03	0.298297E+03	0.298185E+03	0.106650E+04	0.289155E+00	0.454317E-05	0.104579E+09	0.133251E+32	0.691670E+00	0.302811E+03	0.298370E+03	0.299621E+03	0.308330E+00	0.303905E+03	0.298133E+03	0.294303E+03	3.936822E+00	3.930164E+01	3.258935E-01
0.265000E-02	0.500000E-04	0.101938E+03	0.265180E+01	0.250964E+24	0.116698E-01	0.301951E+03	0.300871E+03	0.298578E+03	0.104616E+04	0.287843E+00	0.460867E-05	0.103470E+09	0.129837E+32	0.686069E+00	0.302159E+03	0.300808E+03	0.300052E+03	0.313931E+00	0.301495E+03	0.301008E+03	0.294693E+03	1.735613E+00	3.783333E+01	1.297258E+00
0.275000E-02	0.500000E-04	0.100589E+03	-0.398917E+01	0.251653E+24	0.117019E-01	0.304519E+03	0.301946E+03	0.298563E+03	0.105795E+04	0.282960E+00	0.460578E-05	0.104387E+09	0.131347E+32	0.672721E+00	0.303730E+03	0.301471E+03	0.300112E+03	0.327279E+00	0.306142E+03	0.302923E+03	0.294716E+03	1.939687E+00	3.851159E+01	5.906137E-01
0.285000E-02	0.500000E-04	0.984972E+02	0.171104E+01	0.250125E+24	0.116308E-01	0.305960E+03	0.303822E+03	0.297871E+03	0.105650E+04	0.276247E+00	0.463939E-05	0.103722E+09	0.129718E+32	0.670498E+00	0.305393E+03	0.303414E+03	0.299571E+03	0.329502E+00	0.307115E+03	0.304652E+03	0.293604E+03	2.384774E+00	3.913127E+01	9.968990E-01
0.295000E-02	0.500000E-04	0.948531E+02	0.454330E+01	0.244585E+24	0.113732E-01	0.302481E+03	0.301784E+03	0.297696E+03	0.102135E+04	0.267819E+00	0.473094E-05	0.101299E+09	0.123881E+32	0.649714E+00	0.303163E+03	0.301222E+03	0.299386E+03	0.350286E+00	0.301217E+03	0.302826E+03	0.293894E+03	7.457451E-01	4.220462E+01	1.995842E+00
0.305000E-02	0.500000E-04	0.978365E+02	-0.521848E+00	0.240522E+24	0.111843E-01	0.306608E+03	0.301927E+03	0.298674E+03	0.101809E+04	0.274067E+00	0.482719E-05	0.988589E+08	0.118889E+32	0.638224E+00	0.306412E+03	0.302700E+03	0.300603E+03	0.361776E+00	0.306955E+03	0.300564E+03	0.294455E+03	7.464681E-01	4.127241E+01	1.611520E+00
0.315000E-02	0.500000E-04	0.989553E+02	-0.617018E+00	0.240647E+24	0.111901E-01	0.307493E+03	0.305815E+03	0.298622E+03	0.102156E+04	0.276803E+00	0.482816E-05	0.989438E+08	0.119052E+32	0.640733E+00	0.306533E+03	0.306913E+03	0.300601E+03	0.359267E+00	0.309205E+03	0.303856E+03	0.294206E+03	1.034823E+00	3.814820E+01	1.463429E+00
0.325000E-02	0.500000E-04	0.981162E+02	-0.426202E+01	0.244932E+24	0.113893E-01	0.304237E+03	0.299578E+03	0.297967E+03	0.102874E+04	0.276176E+00	0.473107E-05	0.101184E+09	0.123916E+32	0.644855E+00	0.305072E+03	0.300633E+03	0.299845E+03	0.355145E+00	0.302720E+03	0.297662E+03	0.293740E+03	2.100745E+00	3.893039E+01	2.491084E+00
0.335000E-02	0.500000E-04	0.969007E+02	0.298862E+01	0.243297E+24	0.113133E-01	0.299270E+03	0.294610E+03	0.298361E+03	0.100519E+04	0.274880E+00	0.474331E-05	0.100231E+09	0.121929E+32	0.637636E+00	0.299151E+03	0.296080E+03	0.300261E+03	0.362364E+00	0.299479E+03	0.292024E+03	0.294233E+03	2.394676E+00	3.649434E+01	5.143813E+00
0.345000E-02	0.500000E-04	0.974026E+02	0.935380E+00	0.242583E+24	0.112801E-01	0.300029E+03	0.295997E+03	0.298252E+03	0.100479E+04	0.275836E+00	0.476028E-05	0.100268E+09	0.121617E+32	0.628466E+00	0.300528E+03	0.294029E+03	0.300210E+03	0.371534E+00	0.299185E+03	0.299325E+03	0.294157E+03	3.849080E+00	3.234326E+01	7.254870E+00
0.355000E-02	0.500000E-04	0.969759E+02	-0.127847E+01	0.248806E+24	0.115695E-01	0.298740E+03	0.295400E+03	0.298467E+03	0.102613E+04	0.275230E+00	0.463623E-05	0.102231E+09	0.127178E+32	0.620950E+00	0.299772E+03	0.296605E+03	0.300484E+03	0.379050E+00	0.297049E+03	0.293427E+03	0.294376E+03	8.506575E-01	3.625888E+01	3.409249E+00
0.365000E-02	0.500000E-04	0.100461E+03	0.797395E+00	0.242442E+24	0.112736E-01	0.302001E+03	0.295507E+03	0.298546E+03	0.101080E+04	0.283561E+00	0.477086E-05	0.100129E+09	0.121378E+32	0.615707E+00	0.302883E+03	0.296886E+03	0.300529E+03	0.384293E+00	0.300586E+03	0.293298E+03	0.294644E+03	2.608863E+00	3.106839E+01	4.797976E+00
0.375000E-02	0.500000E-04	0.101685E+03	-0.547400E+01	0.245664E+24	0.114234E-01	0.303800E+03	0.300317E+03	0.297876E+03	0.103034E+04	0.286572E+00	0.471527E-05	0.100779E+09	0.123789E+32	0.598639E+00	0.305327E+03	0.300093E+03	0.299786E+03	0.401361E+00	0.301523E+03	0.300650E+03	0.294441E+03	1.135038E+00	3.054933E+01	2.565798E+00
0.385000E-02	0.500000E-04	0.994777E+02	0.420785E+01	0.250190E+24	0.116339E-01	0.296347E+03	0.292595E+03	0.297580E+03	0.102357E+04	0.283697E+00	0.460130E-05	0.102757E+09	0.128544E+32	0.563583E+00	0.294836E+03	0.291967E+03	0.299790E+03	0.436417E+00	0.298298E+03	0.293407E+03	0.294094E+03	1.441477E+00	2.793390E+01	2.740439E+00
0.395000E-02	0.500000E-04	0.100425E+03	0.891070E+00	0.249670E+24	0.116097E-01	0.296920E+03	0.292904E+03	0.298147E+03	0.102342E+04	0.285876E+00	0.461312E-05	0.103727E+09	0.129488E+32	0.576103E+00	0.295666E+03	0.292628E+03	0.300105E+03	0.423897E+00	0.298625E+03	0.293279E+03	0.294962E+03	6.029623E-03	2.054716E+01	4.134829E+00
0.405000E-02	0.500000E-04	0.999099E+02	0.322739E+01	0.248796E+24	0.115690E-01	0.302072E+03	0.298740E+03	0.298346E+03	0.103753E+04	0.282112E+00	0.464929E-05	0.103665E+09	0.128957E+32	0.569349E+00	0.303012E+03	0.297240E+03	0.300513E+03	0.430651E+00	0.300829E+03	0.300723E+03	0.294855E+03	3.077139E+00	2.351510E+01	2.325525E-01
0.415000E-02	0.500000E-04	0.977278E+02	0.120280E+01	0.253621E+24	0.117934E-01	0.295411E+03	0.295556E+03	0.298737E+03	0.103433E+04	0.278920E+00	0.453549E-05	0.103948E+09	0.131818E+32	0.570794E+00	0.295363E+03	0.295926E+03	0.300824E+03	0.429206E+00	0.295473E+03	0.295064E+03	0.295384E+03	2.394917E+00	2.266953E+01	5.101377E-01
0.425000E-02	0.500000E-04	0.928118E+02	0.381527E+01	0.249662E+24	0.116093E-01	0.300090E+03	0.296206E+03	0.298527E+03	0.103432E+04	0.263018E+00	0.462555E-05	0.102521E+09	0.127977E+32	0.548085E+00	0.299786E+03	0.293711E+03	0.300413E+03	0.451915E+00	0.300459E+03	0.299233E+03	0.295846E+03	1.110418E+00	2.844769E+01	1.764213E+00
0.435000E-02	0.500000E-04	0.979978E+02	-0.551404E+01	0.240479E+24	0.111823E-01	0.304787E+03	0.299389E+03	0.298636E+03	0.101186E+04	0.275770E+00	0.482087E-05	0.991142E+08	0.119174E+32	0.550065E+00	0.303990E+03	0.297360E+03	0.300519E+03	0.449935E+00	0.305761E+03	0.301869E+03	0.295935E+03	1.374032E+00	2.588052E+01	2.701530E+00
0.445000E-02	0.500000E-04	0.100543E+03	0.331622E+01	0.235373E+24	0.109448E-01	0.306223E+03	0.303465E+03	0.297729E+03	0.995046E+03	0.281975E+00	0.493124E-05	0.978596E+08	0.115167E+32	0.532555E+00	0.306470E+03	0.303449E+03	0.299473E+03	0.467445E+00	0.305942E+03	0.303482E+03	0.295441E+03	1.256583E+00	2.378270E+01	2.833909E+00
0.455000E-02	0.500000E-04	0.961662E+02	0.164541E+01	0.240011E+24	0.111605E-01	0.299658E+03	0.298585E+03	0.297257E+03	0.992903E+03	0.272530E+00	0.480981E-05	0.987497E+08	0.118505E+32	0.536860E+00	0.299413E+03	0.297009E+03	0.299475E+03	0.463140E+00	0.299943E+03	0.300412E+03	0.294156E+03	2.453293E+00	2.701121E+01	4.610405E+00
0.465000E-02	0.500000E-04	0.960465E+02	-0.114491E+01	0.239441E+24	0.111340E-01	0.304099E+03	0.299876E+03	0.297324E+03	0.100522E+04	0.270176E+00	0.483901E-05	0.987824E+08	0.118263E+32	0.547896E+00	0.302858E+03	0.302587E+03	0.300050E+03	0.452104E+00	0.305602E+03	0.296590E+03	0.293108E+03	3.325311E+00	2.632569E+01	2.761713E+00
0.475000E-02	0.500000E-04	0.969481E+02	0.120499E+01	0.244684E+24	0.113778E-01	0.299960E+03	0.299609E+03	0.297339E+03	0.101325E+04	0.274589E+00	0.471913E-05	0.100515E+09	0.122972E+32	0.541606E+00	0.301091E+03	0.299285E+03	0.299956E+03	0.458394E+00	0.298623E+03	0.299993E+03	0.293453E+03	2.571879E-01	2.269195E+01	1.202692E+00
0.485000E-02	0.500000E-04	0.936807E+02	0.366321E+01	0.246216E+24	0.114490E-01	0.294678E+03	0.294249E+03	0.297467E+03	0.100164E+04	0.267886E+00	0.466900E-05	0.101037E+09	0.124385E+32	0.541902E+00	0.295242E+03	0.293717E+03	0.299681E+03	0.458098E+00	0.294011E+03	0.294877E+03	0.294304E+03	3.400619E-01	2.871767E+01	1.300344E+00
0.495000E-02	0.500000E-04	0.928487E+02	0.155805E+00	0.241166E+24	0.112142E-01	0.298823E+03	0.294581E+03	0.297686E+03	0.994898E+03	0.263458E+00	0.478344E-05	0.991173E+08	0.119519E+32	0.524664E+00	0.298749E+03	0.296876E+03	0.299963E+03	0.475336E+00	0.298904E+03	0.292049E+03	0.294658E+03	1.915376E-01	3.117024E+01	1.984537E+00