TITLE=" Box                                                                     /                                                                         "
VARIABLES="X",        "Y",      "Vx   ",      "Vy   ",      "Nden ",      "Rho  ",      "Ttrn ",      "Trot ",      "Tvib ",      "Press",      "Ma   ",      "Lambd",      "Relac",      "Coll ",      "frac1",      "Ttrn1",      "Trot1",      "Tvib1",      "frac2",      "Ttrn2",      "Trot2",      "Tvib2",      "NEWVAR"
ZONE T="DSMC,BG", I=  200, J=   50, F=POINT
-0.395000E-02	0.500000E-04	0.804095E+03	0.244460E+02	0.128646E+25	0.598204E-01	0.989231E+02	0.834242E+02	2.329000E+02	1.756880E+03	3.967320E+00	6.801910E-07	3.835250E+08	2.466950E+32	0.000000E+00	0.000000E+00	0.000000E+00	0.000000E+00	1.000000E+00	9.892310E+01	8.342420E+01	2.329000E+02	0.000000E+00
-0.385000E-02	0.500000E-04	0.744242E+03	0.663386E+02	0.139040E+25	0.646537E-01	0.142380E+03	0.114963E+03	2.453040E+02	2.732990E+03	3.071470E+00	6.893270E-07	4.760120E+08	3.309240E+32	0.000000E+00	0.000000E+00	0.000000E+00	0.000000E+00	1.000000E+00	1.423800E+02	1.149630E+02	2.453040E+02	0.000000E+00
-0.375000E-02	0.500000E-04	0.715576E+03	0.875404E+02	0.138897E+25	0.645873E-01	0.158758E+03	0.129520E+03	2.500550E+02	3.044240E+03	2.806420E+00	7.090760E-07	5.293610E+08	3.676340E+32	0.000000E+00	0.000000E+00	0.000000E+00	0.000000E+00	1.000000E+00	1.587580E+02	1.295200E+02	2.500550E+02	0.000000E+00
-0.365000E-02	0.500000E-04	0.676709E+03	0.739850E+02	0.113099E+25	0.525908E-01	0.184481E+03	0.148068E+03	2.567760E+02	2.880430E+03	2.458360E+00	9.041360E-07	4.663140E+08	2.636970E+32	0.000000E+00	0.000000E+00	0.000000E+00	0.000000E+00	1.000000E+00	1.844810E+02	1.480680E+02	2.567760E+02	0.000000E+00
-0.355000E-02	0.500000E-04	0.631241E+03	0.533906E+02	0.875389E+24	0.407056E-01	0.210242E+03	0.168678E+03	2.636530E+02	2.540800E+03	2.143000E+00	1.206930E-06	3.629180E+08	1.588480E+32	0.000000E+00	0.000000E+00	0.000000E+00	0.000000E+00	1.000000E+00	2.102420E+02	1.686780E+02	2.636530E+02	0.000000E+00
-0.345000E-02	0.500000E-04	0.583455E+03	0.379591E+02	0.721022E+24	0.335275E-01	0.235645E+03	0.189496E+03	2.698330E+02	2.345610E+03	1.868250E+00	1.507710E-06	2.966020E+08	1.069280E+32	0.000000E+00	0.000000E+00	0.000000E+00	0.000000E+00	1.000000E+00	2.356450E+02	1.894960E+02	2.698330E+02	0.000000E+00
-0.335000E-02	0.500000E-04	0.542229E+03	0.298761E+02	0.623728E+24	0.290034E-01	0.253094E+03	0.207809E+03	2.743600E+02	2.179350E+03	1.674320E+00	1.774300E-06	2.562860E+08	7.992650E+31	0.000000E+00	0.000000E+00	0.000000E+00	0.000000E+00	1.000000E+00	2.530940E+02	2.078090E+02	2.743600E+02	0.000000E+00
-0.325000E-02	0.500000E-04	0.504471E+03	0.230068E+02	0.552026E+24	0.256692E-01	0.265745E+03	0.220827E+03	2.777390E+02	2.025220E+03	1.519480E+00	2.029360E-06	2.252380E+08	6.216870E+31	0.000000E+00	0.000000E+00	0.000000E+00	0.000000E+00	1.000000E+00	2.657450E+02	2.208270E+02	2.777390E+02	0.000000E+00
-0.315000E-02	0.500000E-04	0.468628E+03	0.199695E+02	0.505680E+24	0.235141E-01	0.276786E+03	0.233682E+03	2.805280E+02	1.932280E+03	1.382900E+00	2.238010E-06	2.043690E+08	5.167270E+31	0.000000E+00	0.000000E+00	0.000000E+00	0.000000E+00	1.000000E+00	2.767860E+02	2.336820E+02	2.805280E+02	0.000000E+00
-0.305000E-02	0.500000E-04	0.434653E+03	0.184599E+02	0.472967E+24	0.219930E-01	0.286661E+03	0.245158E+03	2.826290E+02	1.871750E+03	1.260350E+00	2.413870E-06	1.916240E+08	4.531600E+31	0.000000E+00	0.000000E+00	0.000000E+00	0.000000E+00	1.000000E+00	2.866610E+02	2.451580E+02	2.826290E+02	0.000000E+00
-0.295000E-02	0.500000E-04	0.410063E+03	0.153805E+02	0.438867E+24	0.204073E-01	0.293206E+03	0.256518E+03	2.848230E+02	1.776460E+03	1.175460E+00	2.616150E-06	1.789440E+08	3.926630E+31	0.000000E+00	0.000000E+00	0.000000E+00	0.000000E+00	1.000000E+00	2.932060E+02	2.565180E+02	2.848220E+02	0.000000E+00
-0.285000E-02	0.500000E-04	0.392986E+03	0.713787E+01	0.410249E+24	0.190766E-01	0.292553E+03	0.257994E+03	2.858710E+02	1.656920E+03	1.127160E+00	2.797090E-06	1.675430E+08	3.436730E+31	0.000000E+00	0.000000E+00	0.000000E+00	0.000000E+00	1.000000E+00	2.925530E+02	2.579940E+02	2.858710E+02	0.000000E+00
-0.275000E-02	0.500000E-04	0.370896E+03	0.978617E+01	0.400781E+24	0.186363E-01	0.296782E+03	0.266431E+03	2.867650E+02	1.642080E+03	1.056390E+00	2.873460E-06	1.629330E+08	3.265020E+31	0.000000E+00	0.000000E+00	0.000000E+00	0.000000E+00	1.000000E+00	2.967820E+02	2.664310E+02	2.867650E+02	0.000000E+00
-0.265000E-02	0.500000E-04	0.355730E+03	0.910826E+01	0.387120E+24	0.180011E-01	0.300039E+03	0.269752E+03	2.871800E+02	1.603510E+03	1.007660E+00	2.982990E-06	1.581790E+08	3.061710E+31	0.000000E+00	0.000000E+00	0.000000E+00	0.000000E+00	1.000000E+00	3.000390E+02	2.697520E+02	2.871800E+02	0.000000E+00
-0.255000E-02	0.500000E-04	0.342910E+03	0.590446E+01	0.372512E+24	0.173218E-01	0.301993E+03	0.272397E+03	2.879560E+02	1.553050E+03	9.680260E-01	3.105000E-06	1.528360E+08	2.846670E+31	0.000000E+00	0.000000E+00	0.000000E+00	0.000000E+00	1.000000E+00	3.019930E+02	2.723970E+02	2.879560E+02	0.000000E+00
-0.245000E-02	0.500000E-04	0.329318E+03	0.735860E+01	0.359089E+24	0.166977E-01	0.303598E+03	0.274250E+03	2.886400E+02	1.505050E+03	9.272880E-01	3.225340E-06	1.471000E+08	2.641100E+31	0.000000E+00	0.000000E+00	0.000000E+00	0.000000E+00	1.000000E+00	3.035980E+02	2.742500E+02	2.886400E+02	0.000000E+00
-0.235000E-02	0.500000E-04	0.316859E+03	0.632803E+01	0.351359E+24	0.163382E-01	0.302102E+03	0.276051E+03	2.894570E+02	1.465390E+03	8.943690E-01	3.292230E-06	1.429230E+08	2.510870E+31	0.000000E+00	0.000000E+00	0.000000E+00	0.000000E+00	1.000000E+00	3.021020E+02	2.760510E+02	2.894570E+02	0.000000E+00
-0.225000E-02	0.500000E-04	0.303011E+03	0.501016E+01	0.347875E+24	0.161762E-01	0.301742E+03	0.277264E+03	2.898670E+02	1.449130E+03	8.557370E-01	3.324210E-06	1.415640E+08	2.462330E+31	0.000000E+00	0.000000E+00	0.000000E+00	0.000000E+00	1.000000E+00	3.017420E+02	2.772640E+02	2.898670E+02	0.000000E+00
-0.215000E-02	0.500000E-04	0.291914E+03	0.603244E+01	0.340392E+24	0.158282E-01	0.304968E+03	0.281395E+03	2.897920E+02	1.433120E+03	8.200890E-01	3.406340E-06	1.393790E+08	2.372170E+31	0.000000E+00	0.000000E+00	0.000000E+00	0.000000E+00	1.000000E+00	3.049680E+02	2.813950E+02	2.897920E+02	0.000000E+00
-0.205000E-02	0.500000E-04	0.287922E+03	0.135733E+01	0.328427E+24	0.152719E-01	0.306172E+03	0.284381E+03	2.900890E+02	1.388210E+03	8.071180E-01	3.533910E-06	1.353330E+08	2.222360E+31	0.000000E+00	0.000000E+00	0.000000E+00	0.000000E+00	1.000000E+00	3.061720E+02	2.843810E+02	2.900890E+02	0.000000E+00
-0.195000E-02	0.500000E-04	0.278732E+03	0.406461E+01	0.326549E+24	0.151845E-01	0.307504E+03	0.286039E+03	2.906100E+02	1.386270E+03	7.797360E-01	3.558100E-06	1.343330E+08	2.193310E+31	0.000000E+00	0.000000E+00	0.000000E+00	0.000000E+00	1.000000E+00	3.075040E+02	2.860390E+02	2.906100E+02	0.000000E+00
-0.185000E-02	0.500000E-04	0.266031E+03	0.518790E+01	0.325714E+24	0.151457E-01	0.309788E+03	0.289734E+03	2.910000E+02	1.392990E+03	7.415200E-01	3.573820E-06	1.338290E+08	2.179490E+31	0.000000E+00	0.000000E+00	0.000000E+00	0.000000E+00	1.000000E+00	3.097880E+02	2.897340E+02	2.910000E+02	0.000000E+00
-0.175000E-02	0.500000E-04	0.253461E+03	0.765088E+01	0.319242E+24	0.148448E-01	0.311831E+03	0.296677E+03	2.916090E+02	1.374320E+03	7.043540E-01	3.652270E-06	1.320040E+08	2.107060E+31	0.000000E+00	0.000000E+00	0.000000E+00	0.000000E+00	1.000000E+00	3.118310E+02	2.966770E+02	2.916090E+02	0.000000E+00
-0.165000E-02	0.500000E-04	0.246170E+03	0.309459E+01	0.313284E+24	0.145677E-01	0.309209E+03	0.290703E+03	2.921460E+02	1.337330E+03	6.867270E-01	3.713870E-06	1.287410E+08	2.016630E+31	0.000000E+00	0.000000E+00	0.000000E+00	0.000000E+00	1.000000E+00	3.092090E+02	2.907030E+02	2.921460E+02	0.000000E+00
-0.155000E-02	0.500000E-04	0.223846E+03	0.623702E+01	0.326873E+24	0.151996E-01	0.310337E+03	0.293047E+03	2.924900E+02	1.400430E+03	6.235070E-01	3.562730E-06	1.349290E+08	2.205220E+31	0.000000E+00	0.000000E+00	0.000000E+00	0.000000E+00	1.000000E+00	3.103370E+02	2.930470E+02	2.924900E+02	0.000000E+00
-0.145000E-02	0.500000E-04	0.195916E+03	0.945379E+01	0.341953E+24	0.159008E-01	0.312527E+03	0.296334E+03	2.925010E+02	1.475380E+03	5.442170E-01	3.411610E-06	1.413660E+08	2.417030E+31	0.000000E+00	0.000000E+00	0.000000E+00	0.000000E+00	1.000000E+00	3.125270E+02	2.963340E+02	2.925010E+02	0.000000E+00
-0.135000E-02	0.500000E-04	0.166665E+03	0.113606E+02	0.356760E+24	0.165893E-01	0.317563E+03	0.305388E+03	2.933490E+02	1.564070E+03	4.598080E-01	3.283100E-06	1.485340E+08	2.649550E+31	0.000000E+00	0.000000E+00	0.000000E+00	0.000000E+00	1.000000E+00	3.175630E+02	3.053880E+02	2.933490E+02	0.000000E+00
-0.125000E-02	0.500000E-04	0.131191E+03	0.964693E+01	0.375938E+24	0.174811E-01	0.317040E+03	0.310066E+03	2.935460E+02	1.645430E+03	3.623740E-01	3.114340E-06	1.571960E+08	2.954790E+31	3.351600E-05	3.538420E+02	2.454710E+02	2.874980E+02	9.999670E-01	3.170390E+02	3.100680E+02	2.935460E+02	0.000000E+00
-0.115000E-02	0.500000E-04	0.106846E+03	0.868998E+01	0.384337E+24	0.178717E-01	0.318106E+03	0.309628E+03	2.939330E+02	1.687850E+03	2.948120E-01	3.048840E-06	1.610860E+08	3.095560E+31	6.722450E-03	3.160910E+02	2.928130E+02	2.907140E+02	9.932780E-01	3.181200E+02	3.097420E+02	2.939530E+02	0.000000E+00
-0.105000E-02	0.500000E-04	0.886674E+02	0.727814E+01	0.390611E+24	0.181634E-01	0.316381E+03	0.309620E+03	2.954420E+02	1.706100E+03	2.453340E-01	2.995780E-06	1.638500E+08	3.200070E+31	6.162510E-02	3.109970E+02	3.034740E+02	3.009320E+02	9.383750E-01	3.167350E+02	3.100240E+02	2.949990E+02	0.000000E+00
-0.950000E-03	0.500000E-04	0.780225E+02	0.278435E+01	0.411632E+24	0.191409E-01	0.308222E+03	0.305287E+03	2.960680E+02	1.751550E+03	2.181250E-01	2.824290E-06	1.725040E+08	3.550420E+31	2.286350E-01	3.073640E+02	3.067320E+02	3.018070E+02	7.713650E-01	3.084760E+02	3.048590E+02	2.938210E+02	0.000000E+00
-0.850000E-03	0.500000E-04	0.724303E+02	0.476155E+01	0.416096E+24	0.193484E-01	0.307779E+03	0.304946E+03	2.964030E+02	1.768000E+03	2.029450E-01	2.792990E-06	1.741840E+08	3.623860E+31	4.353010E-01	3.064420E+02	3.051470E+02	3.000120E+02	5.646990E-01	3.088100E+02	3.047900E+02	2.928190E+02	0.000000E+00
-0.750000E-03	0.500000E-04	0.712299E+02	0.316844E+01	0.418877E+24	0.194778E-01	0.303721E+03	0.301363E+03	2.962080E+02	1.756350E+03	2.006760E-01	2.765250E-06	1.757580E+08	3.681050E+31	5.537370E-01	3.028070E+02	3.015340E+02	2.991100E+02	4.462630E-01	3.048540E+02	3.011510E+02	2.914900E+02	0.000000E+00
-0.650000E-03	0.500000E-04	0.676563E+02	0.333422E+01	0.431398E+24	0.200600E-01	0.299971E+03	0.297007E+03	2.967350E+02	1.786520E+03	1.918390E-01	2.676660E-06	1.786630E+08	3.853740E+31	6.487170E-01	2.984670E+02	2.972060E+02	2.990300E+02	3.512830E-01	3.027500E+02	2.966400E+02	2.911190E+02	0.000000E+00
-0.550000E-03	0.500000E-04	0.653219E+02	0.188118E+01	0.435226E+24	0.202380E-01	0.299156E+03	0.297002E+03	2.970870E+02	1.797470E+03	1.853230E-01	2.651320E-06	1.807120E+08	3.932530E+31	7.187780E-01	2.982440E+02	2.957760E+02	2.991360E+02	2.812220E-01	3.014880E+02	3.001370E+02	2.897670E+02	0.000000E+00
-0.450000E-03	0.500000E-04	0.659615E+02	0.242867E+01	0.436444E+24	0.202947E-01	0.296828E+03	0.296190E+03	2.981590E+02	1.788480E+03	1.879200E-01	2.638760E-06	1.816010E+08	3.962930E+31	7.658280E-01	2.960990E+02	2.961450E+02	2.998930E+02	2.341720E-01	2.992140E+02	2.963370E+02	2.901320E+02	0.000000E+00
-0.350000E-03	0.500000E-04	0.647967E+02	0.291413E+01	0.441991E+24	0.205526E-01	0.298110E+03	0.295819E+03	2.977840E+02	1.819030E+03	1.842660E-01	2.608460E-06	1.833380E+08	4.051670E+31	8.154430E-01	2.982210E+02	2.950580E+02	2.993320E+02	1.845570E-01	2.976210E+02	2.991820E+02	2.871890E+02	0.000000E+00
-0.250000E-03	0.500000E-04	0.604216E+02	0.377041E+01	0.436727E+24	0.203078E-01	0.296259E+03	0.293518E+03	2.983410E+02	1.786200E+03	1.725210E-01	2.635790E-06	1.803130E+08	3.937380E+31	8.440760E-01	2.962720E+02	2.937300E+02	2.995740E+02	1.559240E-01	2.961890E+02	2.923690E+02	2.883720E+02	0.000000E+00
-0.150000E-03	0.500000E-04	0.573299E+02	0.385489E+01	0.422339E+24	0.196388E-01	0.300764E+03	0.298447E+03	2.981110E+02	1.753620E+03	1.625130E-01	2.735890E-06	1.746640E+08	3.688370E+31	8.321230E-01	3.006640E+02	2.983950E+02	2.991810E+02	1.678770E-01	3.012570E+02	2.987070E+02	2.910270E+02	0.000000E+00
-0.499999E-04	0.500000E-04	0.625582E+02	0.193522E+01	0.416591E+24	0.193715E-01	0.301121E+03	0.298813E+03	2.985360E+02	1.731810E+03	1.769140E-01	2.774460E-06	1.732710E+08	3.609160E+31	8.327170E-01	3.009580E+02	2.991960E+02	2.996220E+02	1.672830E-01	3.019280E+02	2.969050E+02	2.912680E+02	0.000000E+00
0.499999E-04	0.500000E-04	0.607782E+02	0.332162E+01	0.418814E+24	0.194748E-01	0.297304E+03	0.295356E+03	2.992290E+02	1.718980E+03	1.731550E-01	2.750940E-06	1.729200E+08	3.621060E+31	8.694070E-01	2.966260E+02	2.950110E+02	3.000590E+02	1.305930E-01	3.018200E+02	2.976520E+02	2.918390E+02	0.000000E+00
0.150000E-03	0.500000E-04	0.659847E+02	0.144993E+01	0.413529E+24	0.192291E-01	0.296456E+03	0.294545E+03	3.000110E+02	1.692450E+03	1.880220E-01	2.784110E-06	1.707010E+08	3.529490E+31	8.712440E-01	2.963790E+02	2.948330E+02	3.009410E+02	1.287560E-01	2.969770E+02	2.925950E+02	2.911120E+02	0.000000E+00
0.250000E-03	0.500000E-04	0.695374E+02	0.303480E+01	0.402539E+24	0.187181E-01	0.295497E+03	0.293422E+03	3.005160E+02	1.642140E+03	1.986080E-01	2.857810E-06	1.658670E+08	3.338390E+31	8.826710E-01	2.956730E+02	2.935590E+02	3.013710E+02	1.173290E-01	2.941680E+02	2.923960E+02	2.913710E+02	0.000000E+00
0.350000E-03	0.500000E-04	0.689537E+02	-0.548895E+00	0.395539E+24	0.183926E-01	0.292603E+03	0.289871E+03	3.003640E+02	1.597780E+03	1.977310E-01	2.901240E-06	1.627500E+08	3.218690E+31	9.029820E-01	2.925490E+02	2.901810E+02	3.010440E+02	9.701820E-02	2.931030E+02	2.869840E+02	2.914970E+02	0.000000E+00
0.450000E-03	0.500000E-04	0.764691E+02	0.160765E+01	0.373930E+24	0.173877E-01	0.299587E+03	0.296042E+03	3.000040E+02	1.546550E+03	2.167510E-01	3.087050E-06	1.542460E+08	2.883860E+31	9.163630E-01	2.996050E+02	2.962930E+02	3.006410E+02	8.363710E-02	2.993960E+02	2.932840E+02	2.897050E+02	0.000000E+00
0.550000E-03	0.500000E-04	0.786172E+02	0.117373E+01	0.367046E+24	0.170676E-01	0.294104E+03	0.290574E+03	2.995890E+02	1.490290E+03	2.248830E-01	3.130460E-06	1.510150E+08	2.771460E+31	9.220930E-01	2.942390E+02	2.908010E+02	3.002240E+02	7.790730E-02	2.925070E+02	2.878800E+02	2.878900E+02	0.000000E+00
0.650000E-03	0.500000E-04	0.832265E+02	0.106980E+01	0.360472E+24	0.167619E-01	0.291345E+03	0.289892E+03	2.993400E+02	1.449860E+03	2.391860E-01	3.180040E-06	1.481050E+08	2.669390E+31	9.196540E-01	2.915330E+02	2.895580E+02	2.998600E+02	8.034560E-02	2.891860E+02	2.937120E+02	2.912710E+02	0.000000E+00
0.750000E-03	0.500000E-04	0.949794E+02	-0.450764E+01	0.342690E+24	0.159351E-01	0.297175E+03	0.293406E+03	2.999600E+02	1.405930E+03	2.705530E-01	3.361670E-06	1.412400E+08	2.420080E+31	9.195890E-01	2.972060E+02	2.926090E+02	3.005470E+02	8.041100E-02	2.968210E+02	3.025190E+02	2.903060E+02	0.000000E+00
0.850000E-03	0.500000E-04	0.100852E+03	0.485215E+01	0.339574E+24	0.157902E-01	0.292267E+03	0.289147E+03	2.997000E+02	1.370140E+03	2.896930E-01	3.378420E-06	1.393210E+08	2.365500E+31	9.228730E-01	2.923830E+02	2.894720E+02	3.003050E+02	7.712700E-02	2.908810E+02	2.852600E+02	2.887920E+02	0.000000E+00
0.950000E-03	0.500000E-04	0.102040E+03	0.306715E+00	0.329295E+24	0.153122E-01	0.292421E+03	0.289239E+03	2.999780E+02	1.329360E+03	2.926900E-01	3.484340E-06	1.352010E+08	2.226040E+31	9.182480E-01	2.926060E+02	2.887800E+02	3.006250E+02	8.175180E-02	2.903480E+02	2.943940E+02	2.889590E+02	0.000000E+00
0.105000E-02	0.500000E-04	0.107831E+03	-0.202111E+00	0.311697E+24	0.144939E-01	0.291883E+03	0.290040E+03	3.000540E+02	1.256000E+03	3.095870E-01	3.679360E-06	1.267120E+08	1.974790E+31	9.270400E-01	2.920590E+02	2.898140E+02	3.006550E+02	7.296020E-02	2.896550E+02	2.929170E+02	2.881010E+02	0.000000E+00
0.115000E-02	0.500000E-04	0.105251E+03	0.209311E+01	0.310090E+24	0.144192E-01	0.292320E+03	0.289175E+03	3.002540E+02	1.251400E+03	3.020110E-01	3.699810E-06	1.269830E+08	1.968810E+31	9.181830E-01	2.921110E+02	2.887130E+02	3.007560E+02	8.181690E-02	2.946740E+02	2.943570E+02	2.928170E+02	0.000000E+00
0.125000E-02	0.500000E-04	0.104755E+03	-0.855203E+00	0.306824E+24	0.142673E-01	0.299070E+03	0.294050E+03	2.996160E+02	1.266810E+03	2.971290E-01	3.760590E-06	1.263900E+08	1.938970E+31	9.108080E-01	2.989340E+02	2.939040E+02	3.000210E+02	8.919220E-02	3.004610E+02	2.955410E+02	2.946230E+02	0.000000E+00
0.135000E-02	0.500000E-04	0.108118E+03	-0.436174E+01	0.301699E+24	0.140290E-01	0.298024E+03	0.295039E+03	3.001950E+02	1.241290E+03	3.074450E-01	3.821130E-06	1.239190E+08	1.869310E+31	8.973270E-01	2.984510E+02	2.955380E+02	3.006590E+02	1.026730E-01	2.942980E+02	2.906780E+02	2.953020E+02	0.000000E+00
0.145000E-02	0.500000E-04	0.108579E+03	0.365594E+01	0.293054E+24	0.136270E-01	0.299319E+03	0.296728E+03	2.991570E+02	1.210960E+03	3.080120E-01	3.938110E-06	1.203890E+08	1.764020E+31	8.821640E-01	2.997200E+02	2.962130E+02	2.998420E+02	1.178360E-01	2.963150E+02	3.005830E+02	2.925100E+02	0.000000E+00
0.155000E-02	0.500000E-04	0.111969E+03	-0.149679E+01	0.288559E+24	0.134180E-01	0.298095E+03	0.294213E+03	2.993130E+02	1.187510E+03	3.181280E-01	3.995360E-06	1.177010E+08	1.698180E+31	8.589720E-01	2.988030E+02	2.943100E+02	3.000080E+02	1.410280E-01	2.937840E+02	2.936240E+02	2.941070E+02	0.000000E+00
0.165000E-02	0.500000E-04	0.114706E+03	-0.539077E+00	0.284915E+24	0.132485E-01	0.299766E+03	0.294217E+03	2.997710E+02	1.179090E+03	3.249680E-01	4.052130E-06	1.169040E+08	1.665390E+31	8.293000E-01	2.995040E+02	2.936390E+02	3.006940E+02	1.707000E-01	3.010420E+02	2.970260E+02	2.941310E+02	0.000000E+00
0.175000E-02	0.500000E-04	0.111531E+03	-0.603599E+00	0.281190E+24	0.130754E-01	0.298747E+03	0.295635E+03	3.001870E+02	1.159720E+03	3.165130E-01	4.102310E-06	1.155580E+08	1.624690E+31	7.964320E-01	2.985370E+02	2.955620E+02	3.013200E+02	2.035680E-01	2.995680E+02	2.959220E+02	2.945830E+02	0.000000E+00
0.185000E-02	0.500000E-04	0.110272E+03	0.212449E+01	0.273083E+24	0.126984E-01	0.301454E+03	0.297191E+03	2.992340E+02	1.136490E+03	3.115850E-01	4.233630E-06	1.119860E+08	1.529070E+31	7.643550E-01	3.008370E+02	2.959260E+02	3.005120E+02	2.356450E-01	3.034550E+02	3.012980E+02	2.940350E+02	0.000000E+00
0.195000E-02	0.500000E-04	0.107403E+03	-0.424774E+00	0.263161E+24	0.122370E-01	0.306044E+03	0.301546E+03	2.983840E+02	1.111870E+03	3.011410E-01	4.409890E-06	1.088030E+08	1.431630E+31	7.498360E-01	3.064350E+02	3.013450E+02	2.996120E+02	2.501640E-01	3.048720E+02	3.021480E+02	2.938820E+02	0.000000E+00
0.205000E-02	0.500000E-04	0.106686E+03	-0.135089E-01	0.263378E+24	0.122471E-01	0.302724E+03	0.299508E+03	2.985470E+02	1.100710E+03	3.007630E-01	4.394260E-06	1.088630E+08	1.433610E+31	7.348800E-01	3.023860E+02	2.993800E+02	3.000020E+02	2.651200E-01	3.036610E+02	2.998640E+02	2.934700E+02	0.000000E+00
0.215000E-02	0.500000E-04	0.104327E+03	-0.165676E+00	0.261250E+24	0.121481E-01	0.302845E+03	0.299192E+03	2.986010E+02	1.092260E+03	2.940560E-01	4.430490E-06	1.072930E+08	1.401520E+31	7.261260E-01	3.025330E+02	2.969630E+02	3.000320E+02	2.738740E-01	3.036720E+02	3.051020E+02	2.938990E+02	0.000000E+00
0.225000E-02	0.500000E-04	0.106568E+03	-0.969153E+00	0.259278E+24	0.120564E-01	0.300816E+03	0.296373E+03	2.977740E+02	1.076750E+03	3.013940E-01	4.456680E-06	1.067310E+08	1.383650E+31	7.102350E-01	3.012650E+02	2.970370E+02	2.991470E+02	2.897650E-01	2.997160E+02	2.947450E+02	2.936980E+02	0.000000E+00
0.235000E-02	0.500000E-04	0.109330E+03	-0.387223E+01	0.260853E+24	0.121296E-01	0.302171E+03	0.297889E+03	2.981270E+02	1.088170E+03	3.086940E-01	4.434760E-06	1.072430E+08	1.398730E+31	7.040320E-01	3.012150E+02	2.981080E+02	3.000400E+02	2.959680E-01	3.044450E+02	2.973670E+02	2.921060E+02	0.000000E+00
0.245000E-02	0.500000E-04	0.105489E+03	0.418162E+01	0.261112E+24	0.121417E-01	0.301209E+03	0.299564E+03	2.982470E+02	1.085780E+03	2.983700E-01	4.426840E-06	1.074970E+08	1.403440E+31	7.098030E-01	3.014930E+02	3.011480E+02	2.995850E+02	2.901970E-01	3.005140E+02	2.956900E+02	2.943100E+02	0.000000E+00
0.255000E-02	0.500000E-04	0.102632E+03	0.126768E+01	0.254834E+24	0.118498E-01	0.303149E+03	0.298297E+03	2.981850E+02	1.066500E+03	2.891550E-01	4.543170E-06	1.045790E+08	1.332510E+31	6.916700E-01	3.028110E+02	2.983700E+02	2.996210E+02	3.083300E-01	3.039050E+02	2.981330E+02	2.943030E+02	0.000000E+00
0.265000E-02	0.500000E-04	0.101938E+03	0.265180E+01	0.250964E+24	0.116698E-01	0.301951E+03	0.300871E+03	2.985780E+02	1.046160E+03	2.878430E-01	4.608670E-06	1.034700E+08	1.298370E+31	6.860690E-01	3.021590E+02	3.008080E+02	3.000520E+02	3.139310E-01	3.014950E+02	3.010080E+02	2.946930E+02	0.000000E+00
0.275000E-02	0.500000E-04	0.100589E+03	-0.398917E+01	0.251653E+24	0.117019E-01	0.304519E+03	0.301946E+03	2.985630E+02	1.057950E+03	2.829600E-01	4.605780E-06	1.043870E+08	1.313470E+31	6.727210E-01	3.037300E+02	3.014710E+02	3.001120E+02	3.272790E-01	3.061420E+02	3.029230E+02	2.947160E+02	0.000000E+00
0.285000E-02	0.500000E-04	0.984972E+02	0.171104E+01	0.250125E+24	0.116308E-01	0.305960E+03	0.303822E+03	2.978710E+02	1.056500E+03	2.762470E-01	4.639390E-06	1.037220E+08	1.297180E+31	6.704980E-01	3.053930E+02	3.034140E+02	2.995710E+02	3.295020E-01	3.071150E+02	3.046520E+02	2.936040E+02	0.000000E+00
0.295000E-02	0.500000E-04	0.948531E+02	0.454330E+01	0.244585E+24	0.113732E-01	0.302481E+03	0.301784E+03	2.976960E+02	1.021350E+03	2.678190E-01	4.730940E-06	1.012990E+08	1.238810E+31	6.497140E-01	3.031630E+02	3.012220E+02	2.993860E+02	3.502860E-01	3.012170E+02	3.028260E+02	2.938940E+02	0.000000E+00
0.305000E-02	0.500000E-04	0.978365E+02	-0.521848E+00	0.240522E+24	0.111843E-01	0.306608E+03	0.301927E+03	2.986740E+02	1.018090E+03	2.740670E-01	4.827190E-06	9.885890E+07	1.188890E+31	6.382240E-01	3.064120E+02	3.027000E+02	3.006030E+02	3.617760E-01	3.069550E+02	3.005640E+02	2.944550E+02	0.000000E+00
0.315000E-02	0.500000E-04	0.989553E+02	-0.617018E+00	0.240647E+24	0.111901E-01	0.307493E+03	0.305815E+03	2.986220E+02	1.021560E+03	2.768030E-01	4.828160E-06	9.894380E+07	1.190520E+31	6.407330E-01	3.065330E+02	3.069130E+02	3.006010E+02	3.592670E-01	3.092050E+02	3.038560E+02	2.942060E+02	0.000000E+00
0.325000E-02	0.500000E-04	0.981162E+02	-0.426202E+01	0.244932E+24	0.113893E-01	0.304237E+03	0.299578E+03	2.979670E+02	1.028740E+03	2.761760E-01	4.731070E-06	1.011840E+08	1.239160E+31	6.448550E-01	3.050720E+02	3.006330E+02	2.998450E+02	3.551450E-01	3.027200E+02	2.976620E+02	2.937400E+02	0.000000E+00
0.335000E-02	0.500000E-04	0.969007E+02	0.298862E+01	0.243297E+24	0.113133E-01	0.299270E+03	0.294610E+03	2.983610E+02	1.005190E+03	2.748800E-01	4.743310E-06	1.002310E+08	1.219290E+31	6.376360E-01	2.991510E+02	2.960800E+02	3.002610E+02	3.623640E-01	2.994790E+02	2.920240E+02	2.942330E+02	0.000000E+00
0.345000E-02	0.500000E-04	0.974026E+02	0.935380E+00	0.242583E+24	0.112801E-01	0.300029E+03	0.295997E+03	2.982520E+02	1.004790E+03	2.758360E-01	4.760280E-06	1.002680E+08	1.216170E+31	6.284660E-01	3.005280E+02	2.940290E+02	3.002100E+02	3.715340E-01	2.991850E+02	2.993250E+02	2.941570E+02	0.000000E+00
0.355000E-02	0.500000E-04	0.969759E+02	-0.127847E+01	0.248806E+24	0.115695E-01	0.298740E+03	0.295400E+03	2.984670E+02	1.026130E+03	2.752300E-01	4.636230E-06	1.022310E+08	1.271780E+31	6.209500E-01	2.997720E+02	2.966050E+02	3.004840E+02	3.790500E-01	2.970490E+02	2.934270E+02	2.943760E+02	0.000000E+00
0.365000E-02	0.500000E-04	0.100461E+03	0.797395E+00	0.242442E+24	0.112736E-01	0.302001E+03	0.295507E+03	2.985460E+02	1.010800E+03	2.835610E-01	4.770860E-06	1.001290E+08	1.213780E+31	6.157070E-01	3.028830E+02	2.968860E+02	3.005290E+02	3.842930E-01	3.005860E+02	2.932980E+02	2.946440E+02	0.000000E+00
0.375000E-02	0.500000E-04	0.101685E+03	-0.547400E+01	0.245664E+24	0.114234E-01	0.303800E+03	0.300317E+03	2.978760E+02	1.030340E+03	2.865720E-01	4.715270E-06	1.007790E+08	1.237890E+31	5.986390E-01	3.053270E+02	3.000930E+02	2.997860E+02	4.013610E-01	3.015230E+02	3.006500E+02	2.944410E+02	0.000000E+00
0.385000E-02	0.500000E-04	0.994777E+02	0.420785E+01	0.250190E+24	0.116339E-01	0.296347E+03	0.292595E+03	2.975800E+02	1.023570E+03	2.836970E-01	4.601300E-06	1.027570E+08	1.285440E+31	5.635830E-01	2.948360E+02	2.919670E+02	2.997900E+02	4.364170E-01	2.982980E+02	2.934070E+02	2.940940E+02	0.000000E+00
0.395000E-02	0.500000E-04	0.100425E+03	0.891070E+00	0.249670E+24	0.116097E-01	0.296920E+03	0.292904E+03	2.981470E+02	1.023420E+03	2.858760E-01	4.613120E-06	1.037270E+08	1.294880E+31	5.761030E-01	2.956660E+02	2.926280E+02	3.001050E+02	4.238970E-01	2.986250E+02	2.932790E+02	2.949620E+02	0.000000E+00
0.405000E-02	0.500000E-04	0.999099E+02	0.322739E+01	0.248796E+24	0.115690E-01	0.302072E+03	0.298740E+03	2.983460E+02	1.037530E+03	2.821120E-01	4.649290E-06	1.036650E+08	1.289570E+31	5.693490E-01	3.030120E+02	2.972400E+02	3.005130E+02	4.306510E-01	3.008290E+02	3.007230E+02	2.948550E+02	0.000000E+00
0.415000E-02	0.500000E-04	0.977278E+02	0.120280E+01	0.253621E+24	0.117934E-01	0.295411E+03	0.295556E+03	2.987370E+02	1.034330E+03	2.789200E-01	4.535490E-06	1.039480E+08	1.318180E+31	5.707940E-01	2.953630E+02	2.959260E+02	3.008240E+02	4.292060E-01	2.954730E+02	2.950640E+02	2.953840E+02	0.000000E+00
0.425000E-02	0.500000E-04	0.928118E+02	0.381527E+01	0.249662E+24	0.116093E-01	0.300090E+03	0.296206E+03	2.985270E+02	1.034320E+03	2.630180E-01	4.625550E-06	1.025210E+08	1.279770E+31	5.480850E-01	2.997860E+02	2.937110E+02	3.004130E+02	4.519150E-01	3.004590E+02	2.992330E+02	2.958460E+02	0.000000E+00
0.435000E-02	0.500000E-04	0.979978E+02	-0.551404E+01	0.240479E+24	0.111823E-01	0.304787E+03	0.299389E+03	2.986360E+02	1.011860E+03	2.757700E-01	4.820870E-06	9.911420E+07	1.191740E+31	5.500650E-01	3.039900E+02	2.973600E+02	3.005190E+02	4.499350E-01	3.057610E+02	3.018690E+02	2.959350E+02	0.000000E+00
0.445000E-02	0.500000E-04	0.100543E+03	0.331622E+01	0.235373E+24	0.109448E-01	0.306223E+03	0.303465E+03	2.977290E+02	9.950460E+02	2.819750E-01	4.931240E-06	9.785960E+07	1.151670E+31	5.325550E-01	3.064700E+02	3.034490E+02	2.994730E+02	4.674450E-01	3.059420E+02	3.034820E+02	2.954410E+02	0.000000E+00
0.455000E-02	0.500000E-04	0.961662E+02	0.164541E+01	0.240011E+24	0.111605E-01	0.299658E+03	0.298585E+03	2.972570E+02	9.929030E+02	2.725300E-01	4.809810E-06	9.874970E+07	1.185050E+31	5.368600E-01	2.994130E+02	2.970090E+02	2.994750E+02	4.631400E-01	2.999430E+02	3.004120E+02	2.941560E+02	0.000000E+00
0.465000E-02	0.500000E-04	0.960465E+02	-0.114491E+01	0.239441E+24	0.111340E-01	0.304099E+03	0.299876E+03	2.973240E+02	1.005220E+03	2.701760E-01	4.839010E-06	9.878240E+07	1.182630E+31	5.478960E-01	3.028580E+02	3.025870E+02	3.000500E+02	4.521040E-01	3.056020E+02	2.965900E+02	2.931080E+02	0.000000E+00
0.475000E-02	0.500000E-04	0.969481E+02	0.120499E+01	0.244684E+24	0.113778E-01	0.299960E+03	0.299609E+03	2.973390E+02	1.013250E+03	2.745890E-01	4.719130E-06	1.005150E+08	1.229720E+31	5.416060E-01	3.010910E+02	2.992850E+02	2.999560E+02	4.583940E-01	2.986230E+02	2.999930E+02	2.934530E+02	0.000000E+00
0.485000E-02	0.500000E-04	0.936807E+02	0.366321E+01	0.246216E+24	0.114490E-01	0.294678E+03	0.294249E+03	2.974670E+02	1.001640E+03	2.678860E-01	4.669000E-06	1.010370E+08	1.243850E+31	5.419020E-01	2.952420E+02	2.937170E+02	2.996810E+02	4.580980E-01	2.940110E+02	2.948770E+02	2.943040E+02	0.000000E+00
0.495000E-02	0.500000E-04	0.928487E+02	0.155805E+00	0.241166E+24	0.112142E-01	0.298823E+03	0.294581E+03	2.976860E+02	9.948980E+02	2.634580E-01	4.783440E-06	9.911730E+07	1.195190E+31	5.246640E-01	2.987490E+02	2.968760E+02	2.999630E+02	4.753360E-01	2.989040E+02	2.920490E+02	2.946580E+02	0.000000E+00
0.505000E-02	0.500000E-04	0.951426E+02	-0.265136E+01	0.239919E+24	0.111562E-01	0.305301E+03	0.301013E+03	2.982030E+02	1.011210E+03	2.671900E-01	4.834140E-06	9.908150E+07	1.188580E+31	5.166980E-01	3.049240E+02	3.019560E+02	3.006430E+02	4.833020E-01	3.057030E+02	3.000040E+02	2.950310E+02	0.000000E+00
0.515000E-02	0.500000E-04	0.932334E+02	0.362333E+01	0.245469E+24	0.114143E-01	0.296275E+03	0.294123E+03	2.982960E+02	1.004020E+03	2.658840E-01	4.689520E-06	1.011520E+08	1.241480E+31	5.147370E-01	2.941890E+02	2.931930E+02	3.003730E+02	4.852630E-01	2.984880E+02	2.951100E+02	2.957060E+02	0.000000E+00
0.525000E-02	0.500000E-04	0.948139E+02	-0.123211E+01	0.234449E+24	0.109019E-01	0.304369E+03	0.300036E+03	2.985900E+02	9.851390E+02	2.665930E-01	4.943160E-06	9.738180E+07	1.141550E+31	5.092240E-01	3.044560E+02	2.999760E+02	3.006450E+02	4.907760E-01	3.042780E+02	3.000990E+02	2.960910E+02	0.000000E+00
0.535000E-02	0.500000E-04	0.945744E+02	-0.156980E+01	0.238062E+24	0.110699E-01	0.303794E+03	0.299857E+03	2.980660E+02	9.984330E+02	2.661860E-01	4.865830E-06	9.867120E+07	1.174490E+31	5.114280E-01	3.045710E+02	2.998660E+02	2.999310E+02	4.885720E-01	3.029810E+02	2.998480E+02	2.958130E+02	0.000000E+00
0.545000E-02	0.500000E-04	0.998832E+02	0.329517E+00	0.241763E+24	0.112420E-01	0.301434E+03	0.299227E+03	2.980630E+02	1.006080E+03	2.821890E-01	4.782010E-06	1.001380E+08	1.210490E+31	5.353270E-01	3.020110E+02	2.976580E+02	2.992330E+02	4.646730E-01	3.007680E+02	3.010350E+02	2.965850E+02	0.000000E+00
0.555000E-02	0.500000E-04	0.997996E+02	-0.256966E+00	0.241409E+24	0.112255E-01	0.300775E+03	0.298561E+03	2.984220E+02	1.002410E+03	2.822610E-01	4.786410E-06	9.974720E+07	1.203990E+31	5.236350E-01	2.998800E+02	2.973720E+02	3.002720E+02	4.763650E-01	3.017580E+02	2.998670E+02	2.960680E+02	0.000000E+00
0.565000E-02	0.500000E-04	0.970650E+02	0.304775E+01	0.238414E+24	0.110863E-01	0.307105E+03	0.306859E+03	2.981050E+02	1.010810E+03	2.718160E-01	4.871830E-06	9.870990E+07	1.176690E+31	5.004550E-01	3.072720E+02	3.045630E+02	3.006210E+02	4.995450E-01	3.069380E+02	3.091580E+02	2.950420E+02	0.000000E+00
0.575000E-02	0.500000E-04	0.968072E+02	-0.185617E+01	0.238339E+24	0.110828E-01	0.305837E+03	0.301578E+03	2.985510E+02	1.006320E+03	2.715710E-01	4.868310E-06	9.863280E+07	1.175400E+31	4.936220E-01	3.042540E+02	3.016670E+02	3.007350E+02	5.063780E-01	3.073790E+02	3.014910E+02	2.960450E+02	0.000000E+00