TITLE=" Box                                                                     /                                                                         "
VARIABLES="X",        "Y",      "Vx   ",      "Vy   ",      "Nden ",      "Rho  ",      "Ttrn ",      "Trot ",      "Tvib ",      "Press",      "Ma   ",      "Lambd",      "Relac",      "Coll ",      "frac1",      "Ttrn1",      "Trot1",      "Tvib1",      "frac2",      "Ttrn2",      "Trot2",      "Tvib2"
ZONE T="DSMC,BG", I=  200, J=   50, F=POINT
 -0.395000E-02  0.500000E-04  0.802511E+03  0.242417E+02  0.128715E+25  0.598524E-01  0.993484E+02  0.835112E+02  0.233087E+03  0.176538E+04  0.395100E+01  0.680557E-06  0.383903E+09  0.247070E+33  0.000000E+00  0.000000E+00  0.000000E+00  0.000000E+00  0.100000E+01  0.993484E+02  0.835112E+02  0.233087E+03
 -0.385000E-02  0.500000E-04  0.741081E+03  0.665230E+02  0.139415E+25  0.648278E-01  0.143623E+03  0.115659E+03  0.245709E+03  0.276428E+04  0.304533E+01  0.688971E-06  0.477319E+09  0.332726E+33  0.000000E+00  0.000000E+00  0.000000E+00  0.000000E+00  0.100000E+01  0.143623E+03  0.115659E+03  0.245709E+03
 -0.375000E-02  0.500000E-04  0.711353E+03  0.887155E+02  0.139511E+25  0.648725E-01  0.161093E+03  0.130757E+03  0.250310E+03  0.310266E+04  0.277036E+01  0.708541E-06  0.531268E+09  0.370588E+33  0.000000E+00  0.000000E+00  0.000000E+00  0.000000E+00  0.100000E+01  0.161093E+03  0.130757E+03  0.250310E+03
 -0.365000E-02  0.500000E-04  0.677236E+03  0.743402E+02  0.112314E+25  0.522262E-01  0.182742E+03  0.147413E+03  0.256871E+03  0.283350E+04  0.247207E+01  0.908296E-06  0.464684E+09  0.260953E+33  0.000000E+00  0.000000E+00  0.000000E+00  0.000000E+00  0.100000E+01  0.182742E+03  0.147413E+03  0.256871E+03
 -0.355000E-02  0.500000E-04  0.630904E+03  0.516968E+02  0.867921E+24  0.403583E-01  0.210263E+03  0.168901E+03  0.264008E+03  0.251938E+04  0.214128E+01  0.121734E-05  0.357265E+09  0.155039E+33  0.000000E+00  0.000000E+00  0.000000E+00  0.000000E+00  0.100000E+01  0.210263E+03  0.168901E+03  0.264008E+03
 -0.345000E-02  0.500000E-04  0.584124E+03  0.403902E+02  0.722472E+24  0.335950E-01  0.233560E+03  0.189164E+03  0.269508E+03  0.232953E+04  0.187923E+01  0.150135E-05  0.296960E+09  0.107273E+33  0.000000E+00  0.000000E+00  0.000000E+00  0.000000E+00  0.100000E+01  0.233560E+03  0.189164E+03  0.269508E+03
 -0.335000E-02  0.500000E-04  0.539416E+03  0.314049E+02  0.624654E+24  0.290464E-01  0.252519E+03  0.206752E+03  0.273779E+03  0.217763E+04  0.166782E+01  0.177067E-05  0.256629E+09  0.801522E+32  0.000000E+00  0.000000E+00  0.000000E+00  0.000000E+00  0.100000E+01  0.252519E+03  0.206752E+03  0.273779E+03
 -0.325000E-02  0.500000E-04  0.499137E+03  0.240351E+02  0.554765E+24  0.257966E-01  0.267882E+03  0.223297E+03  0.277385E+03  0.205164E+04  0.149758E+01  0.202339E-05  0.226124E+09  0.627229E+32  0.000000E+00  0.000000E+00  0.000000E+00  0.000000E+00  0.100000E+01  0.267882E+03  0.223297E+03  0.277385E+03
 -0.315000E-02  0.500000E-04  0.465536E+03  0.198236E+02  0.506000E+24  0.235290E-01  0.278311E+03  0.235042E+03  0.280168E+03  0.194415E+04  0.137000E+01  0.223967E-05  0.206456E+09  0.522335E+32  0.000000E+00  0.000000E+00  0.000000E+00  0.000000E+00  0.100000E+01  0.278311E+03  0.235042E+03  0.280168E+03
 -0.305000E-02  0.500000E-04  0.443005E+03  0.139951E+02  0.462220E+24  0.214932E-01  0.284393E+03  0.243510E+03  0.281879E+03  0.181475E+04  0.128916E+01  0.246510E-05  0.188611E+09  0.435898E+32  0.000000E+00  0.000000E+00  0.000000E+00  0.000000E+00  0.100000E+01  0.284393E+03  0.243510E+03  0.281879E+03
 -0.295000E-02  0.500000E-04  0.419307E+03  0.124625E+02  0.436584E+24  0.203011E-01  0.288779E+03  0.251580E+03  0.283610E+03  0.174053E+04  0.121082E+01  0.261985E-05  0.176885E+09  0.386124E+32  0.000000E+00  0.000000E+00  0.000000E+00  0.000000E+00  0.100000E+01  0.288779E+03  0.251580E+03  0.283610E+03
 -0.285000E-02  0.500000E-04  0.400001E+03  0.101202E+02  0.412168E+24  0.191658E-01  0.291828E+03  0.256659E+03  0.284549E+03  0.166055E+04  0.114888E+01  0.278234E-05  0.168173E+09  0.346577E+32  0.000000E+00  0.000000E+00  0.000000E+00  0.000000E+00  0.100000E+01  0.291828E+03  0.256659E+03  0.284549E+03
 -0.275000E-02  0.500000E-04  0.376776E+03  0.103021E+02  0.399362E+24  0.185703E-01  0.296039E+03  0.263190E+03  0.285780E+03  0.163217E+04  0.107451E+01  0.288187E-05  0.162193E+09  0.323869E+32  0.000000E+00  0.000000E+00  0.000000E+00  0.000000E+00  0.100000E+01  0.296039E+03  0.263190E+03  0.285780E+03
 -0.265000E-02  0.500000E-04  0.359856E+03  0.867751E+01  0.384044E+24  0.178580E-01  0.297301E+03  0.266681E+03  0.286849E+03  0.157625E+04  0.102399E+01  0.300000E-05  0.156142E+09  0.299827E+32  0.000000E+00  0.000000E+00  0.000000E+00  0.000000E+00  0.100000E+01  0.297301E+03  0.266681E+03  0.286849E+03
 -0.255000E-02  0.500000E-04  0.347889E+03  0.783805E+01  0.370003E+24  0.172051E-01  0.299484E+03  0.269704E+03  0.287306E+03  0.152978E+04  0.986287E+00  0.311955E-05  0.150913E+09  0.279192E+32  0.000000E+00  0.000000E+00  0.000000E+00  0.000000E+00  0.100000E+01  0.299484E+03  0.269704E+03  0.287306E+03
 -0.245000E-02  0.500000E-04  0.331585E+03  0.662810E+01  0.361178E+24  0.167948E-01  0.301654E+03  0.273944E+03  0.288270E+03  0.150411E+04  0.936630E+00  0.320154E-05  0.147656E+09  0.266650E+32  0.000000E+00  0.000000E+00  0.000000E+00  0.000000E+00  0.100000E+01  0.301654E+03  0.273944E+03  0.288270E+03
 -0.235000E-02  0.500000E-04  0.315296E+03  0.685197E+01  0.356704E+24  0.165867E-01  0.302051E+03  0.278172E+03  0.288849E+03  0.148743E+04  0.890063E+00  0.324276E-05  0.146076E+09  0.260529E+32  0.000000E+00  0.000000E+00  0.000000E+00  0.000000E+00  0.100000E+01  0.302051E+03  0.278172E+03  0.288849E+03
 -0.225000E-02  0.500000E-04  0.306467E+03  0.559729E+01  0.344892E+24  0.160375E-01  0.304437E+03  0.279631E+03  0.289026E+03  0.144954E+04  0.861683E+00  0.336042E-05  0.141789E+09  0.244511E+32  0.000000E+00  0.000000E+00  0.000000E+00  0.000000E+00  0.100000E+01  0.304437E+03  0.279631E+03  0.289026E+03
 -0.215000E-02  0.500000E-04  0.296471E+03  0.412925E+01  0.336841E+24  0.156631E-01  0.307606E+03  0.285452E+03  0.289628E+03  0.143043E+04  0.829214E+00  0.344967E-05  0.138287E+09  0.232903E+32  0.000000E+00  0.000000E+00  0.000000E+00  0.000000E+00  0.100000E+01  0.307606E+03  0.285452E+03  0.289628E+03
 -0.205000E-02  0.500000E-04  0.292543E+03  0.257756E+01  0.328536E+24  0.152769E-01  0.307892E+03  0.284122E+03  0.290040E+03  0.139647E+04  0.817801E+00  0.353769E-05  0.135125E+09  0.221967E+32  0.000000E+00  0.000000E+00  0.000000E+00  0.000000E+00  0.100000E+01  0.307892E+03  0.284122E+03  0.290040E+03
 -0.195000E-02  0.500000E-04  0.277696E+03  0.483471E+01  0.328656E+24  0.152825E-01  0.308542E+03  0.287957E+03  0.290543E+03  0.139992E+04  0.775566E+00  0.353826E-05  0.135636E+09  0.222889E+32  0.000000E+00  0.000000E+00  0.000000E+00  0.000000E+00  0.100000E+01  0.308542E+03  0.287957E+03  0.290543E+03
 -0.185000E-02  0.500000E-04  0.273789E+03  0.323365E+01  0.316315E+24  0.147086E-01  0.308568E+03  0.287863E+03  0.291250E+03  0.134747E+04  0.764561E+00  0.367639E-05  0.130206E+09  0.205931E+32  0.000000E+00  0.000000E+00  0.000000E+00  0.000000E+00  0.100000E+01  0.308568E+03  0.287863E+03  0.291250E+03
 -0.175000E-02  0.500000E-04  0.269638E+03  0.217955E+01  0.309458E+24  0.143898E-01  0.309267E+03  0.288675E+03  0.291753E+03  0.132125E+04  0.752087E+00  0.375998E-05  0.127258E+09  0.196905E+32  0.000000E+00  0.000000E+00  0.000000E+00  0.000000E+00  0.100000E+01  0.309267E+03  0.288675E+03  0.291753E+03
 -0.165000E-02  0.500000E-04  0.261112E+03  0.309686E+01  0.309909E+24  0.144108E-01  0.310001E+03  0.290745E+03  0.291796E+03  0.132631E+04  0.727472E+00  0.375673E-05  0.127452E+09  0.197492E+32  0.000000E+00  0.000000E+00  0.000000E+00  0.000000E+00  0.100000E+01  0.310001E+03  0.290745E+03  0.291796E+03
 -0.155000E-02  0.500000E-04  0.255335E+03  0.394044E+01  0.304497E+24  0.141591E-01  0.306951E+03  0.287901E+03  0.291702E+03  0.129033E+04  0.714938E+00  0.381405E-05  0.125067E+09  0.190413E+32  0.000000E+00  0.000000E+00  0.000000E+00  0.000000E+00  0.100000E+01  0.306951E+03  0.287901E+03  0.291702E+03
 -0.145000E-02  0.500000E-04  0.245063E+03  0.483834E+01  0.305122E+24  0.141882E-01  0.306659E+03  0.289578E+03  0.291903E+03  0.129175E+04  0.686553E+00  0.380534E-05  0.125070E+09  0.190808E+32  0.000000E+00  0.000000E+00  0.000000E+00  0.000000E+00  0.100000E+01  0.306659E+03  0.289578E+03  0.291903E+03
 -0.135000E-02  0.500000E-04  0.244477E+03 -0.118644E+00  0.296731E+24  0.137980E-01  0.307361E+03  0.290103E+03  0.291582E+03  0.125910E+04  0.683997E+00  0.391519E-05  0.122072E+09  0.181112E+32  0.000000E+00  0.000000E+00  0.000000E+00  0.000000E+00  0.100000E+01  0.307361E+03  0.290103E+03  0.291582E+03
 -0.125000E-02  0.500000E-04  0.237055E+03  0.119317E+01  0.300410E+24  0.139691E-01  0.306651E+03  0.292333E+03  0.291819E+03  0.127177E+04  0.664006E+00  0.386500E-05  0.123790E+09  0.185939E+32  0.000000E+00  0.000000E+00  0.000000E+00  0.000000E+00  0.100000E+01  0.306651E+03  0.292333E+03  0.291819E+03
 -0.115000E-02  0.500000E-04  0.231707E+03  0.455050E+01  0.295530E+24  0.137422E-01  0.305976E+03  0.290211E+03  0.292561E+03  0.124836E+04  0.649860E+00  0.392666E-05  0.121147E+09  0.179014E+32  0.000000E+00  0.000000E+00  0.000000E+00  0.000000E+00  0.100000E+01  0.305976E+03  0.290211E+03  0.292561E+03
 -0.105000E-02  0.500000E-04  0.228401E+03  0.279514E+01  0.290626E+24  0.135141E-01  0.307221E+03  0.293192E+03  0.292960E+03  0.123263E+04  0.639214E+00  0.399698E-05  0.119706E+09  0.173948E+32  0.000000E+00  0.000000E+00  0.000000E+00  0.000000E+00  0.100000E+01  0.307221E+03  0.293192E+03  0.292960E+03
 -0.950000E-03  0.500000E-04  0.224603E+03  0.123626E+01  0.288459E+24  0.134134E-01  0.308630E+03  0.295542E+03  0.292946E+03  0.122906E+04  0.627108E+00  0.403160E-05  0.118854E+09  0.171423E+32  0.000000E+00  0.000000E+00  0.000000E+00  0.000000E+00  0.100000E+01  0.308630E+03  0.295542E+03  0.292946E+03
 -0.850000E-03  0.500000E-04  0.221938E+03  0.426370E+00  0.285537E+24  0.132775E-01  0.307407E+03  0.295754E+03  0.293057E+03  0.121178E+04  0.620892E+00  0.406883E-05  0.117472E+09  0.167713E+32  0.000000E+00  0.000000E+00  0.000000E+00  0.000000E+00  0.100000E+01  0.307407E+03  0.295754E+03  0.293057E+03
 -0.750000E-03  0.500000E-04  0.216142E+03  0.667842E-01  0.292770E+24  0.136138E-01  0.308526E+03  0.296003E+03  0.293177E+03  0.124700E+04  0.603580E+00  0.397190E-05  0.121200E+09  0.177419E+32  0.000000E+00  0.000000E+00  0.000000E+00  0.000000E+00  0.100000E+01  0.308526E+03  0.296003E+03  0.293177E+03
 -0.650000E-03  0.500000E-04  0.214807E+03  0.384219E+01  0.287334E+24  0.133610E-01  0.308680E+03  0.296563E+03  0.292955E+03  0.122446E+04  0.599797E+00  0.404756E-05  0.118617E+09  0.170414E+32  0.000000E+00  0.000000E+00  0.000000E+00  0.000000E+00  0.100000E+01  0.308680E+03  0.296563E+03  0.292955E+03
 -0.550000E-03  0.500000E-04  0.211057E+03  0.290525E+01  0.282517E+24  0.131371E-01  0.310417E+03  0.297857E+03  0.292795E+03  0.121071E+04  0.587637E+00  0.412234E-05  0.116551E+09  0.164639E+32  0.000000E+00  0.000000E+00  0.000000E+00  0.000000E+00  0.100000E+01  0.310417E+03  0.297857E+03  0.292795E+03
 -0.450000E-03  0.500000E-04  0.203075E+03  0.179303E+01  0.282855E+24  0.131527E-01  0.309283E+03  0.297692E+03  0.293066E+03  0.120773E+04  0.566418E+00  0.411366E-05  0.116903E+09  0.165333E+32  0.000000E+00  0.000000E+00  0.000000E+00  0.000000E+00  0.100000E+01  0.309283E+03  0.297692E+03  0.293066E+03
 -0.350000E-03  0.500000E-04  0.199037E+03  0.407842E+01  0.278656E+24  0.129575E-01  0.310684E+03  0.300628E+03  0.293710E+03  0.119519E+04  0.553994E+00  0.418036E-05  0.114859E+09  0.160031E+32  0.000000E+00  0.000000E+00  0.000000E+00  0.000000E+00  0.100000E+01  0.310684E+03  0.300628E+03  0.293710E+03
 -0.250000E-03  0.500000E-04  0.191564E+03  0.255082E+01  0.279290E+24  0.129870E-01  0.311754E+03  0.298515E+03  0.294265E+03  0.120203E+04  0.532215E+00  0.417446E-05  0.115547E+09  0.161355E+32  0.000000E+00  0.000000E+00  0.000000E+00  0.000000E+00  0.100000E+01  0.311754E+03  0.298515E+03  0.294265E+03
 -0.150000E-03  0.500000E-04  0.188912E+03  0.289300E+01  0.275277E+24  0.128004E-01  0.306834E+03  0.295433E+03  0.294396E+03  0.116607E+04  0.529054E+00  0.421850E-05  0.113309E+09  0.155957E+32  0.000000E+00  0.000000E+00  0.000000E+00  0.000000E+00  0.100000E+01  0.306834E+03  0.295433E+03  0.294396E+03
 -0.499999E-04  0.500000E-04  0.188802E+03  0.136908E+00  0.273161E+24  0.127020E-01  0.307773E+03  0.295545E+03  0.294027E+03  0.116064E+04  0.527876E+00  0.425443E-05  0.112612E+09  0.153806E+32  0.000000E+00  0.000000E+00  0.000000E+00  0.000000E+00  0.100000E+01  0.307773E+03  0.295545E+03  0.294027E+03
  0.499999E-04  0.500000E-04  0.189376E+03  0.103304E+01  0.272720E+24  0.126815E-01  0.308171E+03  0.299495E+03  0.294375E+03  0.116027E+04  0.529146E+00  0.426269E-05  0.112355E+09  0.153207E+32  0.000000E+00  0.000000E+00  0.000000E+00  0.000000E+00  0.100000E+01  0.308171E+03  0.299495E+03  0.294375E+03
  0.150000E-03  0.500000E-04  0.188596E+03  0.734724E+00  0.267112E+24  0.124207E-01  0.308880E+03  0.295903E+03  0.293795E+03  0.113902E+04  0.526359E+00  0.435469E-05  0.110306E+09  0.147320E+32  0.000000E+00  0.000000E+00  0.000000E+00  0.000000E+00  0.100000E+01  0.308880E+03  0.295903E+03  0.293795E+03
  0.250000E-03  0.500000E-04  0.185345E+03 -0.207776E+01  0.268560E+24  0.124881E-01  0.307535E+03  0.297916E+03  0.294104E+03  0.114021E+04  0.518443E+00  0.432648E-05  0.111218E+09  0.149344E+32  0.000000E+00  0.000000E+00  0.000000E+00  0.000000E+00  0.100000E+01  0.307535E+03  0.297916E+03  0.294104E+03
  0.350000E-03  0.500000E-04  0.183625E+03  0.277256E+01  0.268624E+24  0.124910E-01  0.308416E+03  0.298745E+03  0.294247E+03  0.114375E+04  0.512924E+00  0.432854E-05  0.111106E+09  0.149229E+32  0.000000E+00  0.000000E+00  0.000000E+00  0.000000E+00  0.100000E+01  0.308416E+03  0.298745E+03  0.294247E+03
  0.450000E-03  0.500000E-04  0.182064E+03  0.185904E+01  0.264419E+24  0.122955E-01  0.310863E+03  0.299886E+03  0.294275E+03  0.113478E+04  0.506527E+00  0.440608E-05  0.109646E+09  0.144963E+32  0.000000E+00  0.000000E+00  0.000000E+00  0.000000E+00  0.100000E+01  0.310863E+03  0.299886E+03  0.294275E+03
  0.550000E-03  0.500000E-04  0.175812E+03  0.736139E+00  0.268722E+24  0.124956E-01  0.308038E+03  0.296286E+03  0.294524E+03  0.114277E+04  0.491351E+00  0.432564E-05  0.110882E+09  0.148982E+32  0.000000E+00  0.000000E+00  0.000000E+00  0.000000E+00  0.100000E+01  0.308038E+03  0.296286E+03  0.294524E+03
  0.650000E-03  0.500000E-04  0.175626E+03 -0.140213E+01  0.268024E+24  0.124631E-01  0.305632E+03  0.295595E+03  0.293857E+03  0.113089E+04  0.492770E+00  0.432842E-05  0.110304E+09  0.147820E+32  0.000000E+00  0.000000E+00  0.000000E+00  0.000000E+00  0.100000E+01  0.305632E+03  0.295595E+03  0.293857E+03
  0.750000E-03  0.500000E-04  0.176093E+03  0.287111E+01  0.263594E+24  0.122571E-01  0.306590E+03  0.297172E+03  0.294548E+03  0.111569E+04  0.493357E+00  0.440460E-05  0.109270E+09  0.144014E+32  0.000000E+00  0.000000E+00  0.000000E+00  0.000000E+00  0.100000E+01  0.306590E+03  0.297172E+03  0.294548E+03
  0.850000E-03  0.500000E-04  0.173545E+03  0.134991E+00  0.263778E+24  0.122657E-01  0.310282E+03  0.298292E+03  0.294341E+03  0.112991E+04  0.483253E+00  0.441472E-05  0.108845E+09  0.143554E+32  0.000000E+00  0.000000E+00  0.000000E+00  0.000000E+00  0.100000E+01  0.310282E+03  0.298292E+03  0.294341E+03
  0.950000E-03  0.500000E-04  0.172753E+03  0.190362E+01  0.262332E+24  0.121984E-01  0.309911E+03  0.301776E+03  0.294351E+03  0.112237E+04  0.481364E+00  0.443773E-05  0.108770E+09  0.142669E+32  0.000000E+00  0.000000E+00  0.000000E+00  0.000000E+00  0.100000E+01  0.309911E+03  0.301776E+03  0.294351E+03
  0.105000E-02  0.500000E-04  0.169543E+03  0.723091E+00  0.261166E+24  0.121442E-01  0.311307E+03  0.302257E+03  0.294713E+03  0.112242E+04  0.471335E+00  0.446255E-05  0.108591E+09  0.141801E+32  0.000000E+00  0.000000E+00  0.000000E+00  0.000000E+00  0.100000E+01  0.311307E+03  0.302257E+03  0.294713E+03
  0.115000E-02  0.500000E-04  0.168400E+03  0.166037E+01  0.257860E+24  0.119905E-01  0.313396E+03  0.303009E+03  0.294803E+03  0.111565E+04  0.466614E+00  0.452733E-05  0.106820E+09  0.137723E+32  0.000000E+00  0.000000E+00  0.000000E+00  0.000000E+00  0.100000E+01  0.313396E+03  0.303009E+03  0.294803E+03
  0.125000E-02  0.500000E-04  0.161421E+03 -0.222895E+00  0.264058E+24  0.122787E-01  0.309779E+03  0.300630E+03  0.294739E+03  0.112928E+04  0.449857E+00  0.440825E-05  0.109745E+09  0.144896E+32  0.000000E+00  0.000000E+00  0.000000E+00  0.000000E+00  0.100000E+01  0.309779E+03  0.300630E+03  0.294739E+03
  0.135000E-02  0.500000E-04  0.158297E+03  0.201606E+01  0.262272E+24  0.121957E-01  0.306535E+03  0.300277E+03  0.295228E+03  0.110989E+04  0.443514E+00  0.442661E-05  0.109051E+09  0.143005E+32  0.000000E+00  0.000000E+00  0.000000E+00  0.000000E+00  0.100000E+01  0.306535E+03  0.300277E+03  0.295228E+03
  0.145000E-02  0.500000E-04  0.155411E+03  0.156233E+01  0.262013E+24  0.121836E-01  0.309569E+03  0.301833E+03  0.295056E+03  0.111977E+04  0.433276E+00  0.444191E-05  0.108764E+09  0.142488E+32  0.000000E+00  0.000000E+00  0.000000E+00  0.000000E+00  0.100000E+01  0.309569E+03  0.301833E+03  0.295056E+03
  0.155000E-02  0.500000E-04  0.155097E+03  0.111266E+01  0.260279E+24  0.121030E-01  0.308701E+03  0.300511E+03  0.294576E+03  0.110924E+04  0.432998E+00  0.446836E-05  0.107947E+09  0.140482E+32  0.000000E+00  0.000000E+00  0.000000E+00  0.000000E+00  0.100000E+01  0.308701E+03  0.300511E+03  0.294576E+03
  0.165000E-02  0.500000E-04  0.152453E+03  0.498778E+00  0.258174E+24  0.120051E-01  0.306754E+03  0.297947E+03  0.295249E+03  0.109333E+04  0.426958E+00  0.449767E-05  0.106371E+09  0.137311E+32  0.000000E+00  0.000000E+00  0.000000E+00  0.000000E+00  0.100000E+01  0.306754E+03  0.297947E+03  0.295249E+03
  0.175000E-02  0.500000E-04  0.150193E+03  0.110528E+01  0.257960E+24  0.119951E-01  0.305284E+03  0.300281E+03  0.294710E+03  0.108719E+04  0.421649E+00  0.449600E-05  0.106676E+09  0.137590E+32  0.000000E+00  0.000000E+00  0.000000E+00  0.000000E+00  0.100000E+01  0.305284E+03  0.300281E+03  0.294710E+03
  0.185000E-02  0.500000E-04  0.150514E+03 -0.389873E+00  0.256072E+24  0.119074E-01  0.307591E+03  0.298110E+03  0.294906E+03  0.108739E+04  0.420953E+00  0.453768E-05  0.105476E+09  0.135047E+32  0.000000E+00  0.000000E+00  0.000000E+00  0.000000E+00  0.100000E+01  0.307591E+03  0.298110E+03  0.294906E+03
  0.195000E-02  0.500000E-04  0.147562E+03  0.790691E+00  0.257213E+24  0.119604E-01  0.307124E+03  0.300966E+03  0.295008E+03  0.109058E+04  0.413014E+00  0.451584E-05  0.105876E+09  0.136164E+32  0.000000E+00  0.000000E+00  0.000000E+00  0.000000E+00  0.100000E+01  0.307124E+03  0.300966E+03  0.295008E+03
  0.205000E-02  0.500000E-04  0.147041E+03  0.226542E+01  0.255356E+24  0.118740E-01  0.303830E+03  0.296672E+03  0.295153E+03  0.107109E+04  0.413823E+00  0.453644E-05  0.105638E+09  0.134876E+32  0.000000E+00  0.000000E+00  0.000000E+00  0.000000E+00  0.100000E+01  0.303830E+03  0.296672E+03  0.295153E+03
  0.215000E-02  0.500000E-04  0.146026E+03 -0.526482E+00  0.257287E+24  0.119638E-01  0.304327E+03  0.297743E+03  0.295157E+03  0.108095E+04  0.410585E+00  0.450423E-05  0.105898E+09  0.136230E+32  0.000000E+00  0.000000E+00  0.000000E+00  0.000000E+00  0.100000E+01  0.304327E+03  0.297743E+03  0.295157E+03
  0.225000E-02  0.500000E-04  0.146408E+03 -0.183716E+00  0.255196E+24  0.118666E-01  0.306641E+03  0.300034E+03  0.295412E+03  0.108032E+04  0.410102E+00  0.454973E-05  0.105662E+09  0.134822E+32  0.000000E+00  0.000000E+00  0.000000E+00  0.000000E+00  0.100000E+01  0.306641E+03  0.300034E+03  0.295412E+03
  0.235000E-02  0.500000E-04  0.147228E+03  0.502484E+00  0.254003E+24  0.118111E-01  0.307485E+03  0.299962E+03  0.295134E+03  0.107823E+04  0.411835E+00  0.457425E-05  0.105281E+09  0.133709E+32  0.000000E+00  0.000000E+00  0.000000E+00  0.000000E+00  0.100000E+01  0.307485E+03  0.299962E+03  0.295134E+03
  0.245000E-02  0.500000E-04  0.145262E+03  0.159307E+01  0.249752E+24  0.116135E-01  0.310821E+03  0.300429E+03  0.294977E+03  0.107169E+04  0.404169E+00  0.466468E-05  0.103567E+09  0.129330E+32  0.000000E+00  0.000000E+00  0.000000E+00  0.000000E+00  0.100000E+01  0.310821E+03  0.300429E+03  0.294977E+03
  0.255000E-02  0.500000E-04  0.148212E+03 -0.214158E+01  0.248508E+24  0.115556E-01  0.311111E+03  0.304126E+03  0.295571E+03  0.106734E+04  0.412205E+00  0.468912E-05  0.103123E+09  0.128134E+32  0.000000E+00  0.000000E+00  0.000000E+00  0.000000E+00  0.100000E+01  0.311111E+03  0.304126E+03  0.295571E+03
  0.265000E-02  0.500000E-04  0.147365E+03 -0.377738E+00  0.249886E+24  0.116197E-01  0.310030E+03  0.301438E+03  0.295111E+03  0.106953E+04  0.410520E+00  0.465921E-05  0.103316E+09  0.129086E+32  0.000000E+00  0.000000E+00  0.000000E+00  0.000000E+00  0.100000E+01  0.310030E+03  0.301438E+03  0.295111E+03
  0.275000E-02  0.500000E-04  0.144090E+03  0.154298E+01  0.252726E+24  0.117518E-01  0.307831E+03  0.300978E+03  0.295285E+03  0.107402E+04  0.402851E+00  0.459865E-05  0.104293E+09  0.131788E+32  0.000000E+00  0.000000E+00  0.000000E+00  0.000000E+00  0.100000E+01  0.307831E+03  0.300978E+03  0.295285E+03
  0.285000E-02  0.500000E-04  0.140748E+03  0.162859E+01  0.253774E+24  0.118005E-01  0.305326E+03  0.300759E+03  0.295801E+03  0.106970E+04  0.395122E+00  0.457032E-05  0.104501E+09  0.132598E+32  0.000000E+00  0.000000E+00  0.000000E+00  0.000000E+00  0.100000E+01  0.305326E+03  0.300759E+03  0.295801E+03
  0.295000E-02  0.500000E-04  0.141030E+03 -0.726018E-01  0.246029E+24  0.114404E-01  0.311780E+03  0.303157E+03  0.295923E+03  0.105897E+04  0.391767E+00  0.473891E-05  0.102194E+09  0.125713E+32  0.000000E+00  0.000000E+00  0.000000E+00  0.000000E+00  0.100000E+01  0.311780E+03  0.303157E+03  0.295923E+03
  0.305000E-02  0.500000E-04  0.137102E+03 -0.186811E+00  0.249252E+24  0.115902E-01  0.307718E+03  0.299024E+03  0.295465E+03  0.105887E+04  0.383361E+00  0.466231E-05  0.103648E+09  0.129173E+32  0.000000E+00  0.000000E+00  0.000000E+00  0.000000E+00  0.100000E+01  0.307718E+03  0.299024E+03  0.295465E+03
  0.315000E-02  0.500000E-04  0.136776E+03  0.195066E+01  0.249908E+24  0.116207E-01  0.310780E+03  0.301667E+03  0.295767E+03  0.107222E+04  0.380599E+00  0.466160E-05  0.103734E+09  0.129620E+32  0.000000E+00  0.000000E+00  0.000000E+00  0.000000E+00  0.100000E+01  0.310780E+03  0.301667E+03  0.295767E+03
  0.325000E-02  0.500000E-04  0.137128E+03 -0.123948E+01  0.248099E+24  0.115366E-01  0.310331E+03  0.304466E+03  0.295760E+03  0.106292E+04  0.381833E+00  0.469390E-05  0.103129E+09  0.127931E+32  0.000000E+00  0.000000E+00  0.000000E+00  0.000000E+00  0.100000E+01  0.310331E+03  0.304466E+03  0.295760E+03
  0.335000E-02  0.500000E-04  0.138538E+03  0.131221E+00  0.246248E+24  0.114505E-01  0.313296E+03  0.305991E+03  0.295971E+03  0.106507E+04  0.383912E+00  0.474044E-05  0.102583E+09  0.126304E+32  0.000000E+00  0.000000E+00  0.000000E+00  0.000000E+00  0.100000E+01  0.313296E+03  0.305991E+03  0.295971E+03
  0.345000E-02  0.500000E-04  0.135946E+03  0.246457E+01  0.245727E+24  0.114263E-01  0.310666E+03  0.302757E+03  0.295986E+03  0.105389E+04  0.378383E+00  0.474050E-05  0.101800E+09  0.125075E+32  0.000000E+00  0.000000E+00  0.000000E+00  0.000000E+00  0.100000E+01  0.310666E+03  0.302757E+03  0.295986E+03
  0.355000E-02  0.500000E-04  0.132472E+03 -0.134257E+00  0.246394E+24  0.114573E-01  0.307094E+03  0.301824E+03  0.296380E+03  0.104460E+04  0.370792E+00  0.471401E-05  0.101863E+09  0.125493E+32  0.000000E+00  0.000000E+00  0.000000E+00  0.000000E+00  0.100000E+01  0.307094E+03  0.301824E+03  0.296380E+03
  0.365000E-02  0.500000E-04  0.133836E+03 -0.257224E+00  0.245125E+24  0.113983E-01  0.308648E+03  0.300053E+03  0.296106E+03  0.104448E+04  0.373665E+00  0.474440E-05  0.101453E+09  0.124344E+32  0.000000E+00  0.000000E+00  0.000000E+00  0.000000E+00  0.100000E+01  0.308648E+03  0.300053E+03  0.296106E+03
  0.375000E-02  0.500000E-04  0.137437E+03 -0.181873E+01  0.242006E+24  0.112533E-01  0.309054E+03  0.301744E+03  0.296600E+03  0.103254E+04  0.383500E+00  0.480713E-05  0.100780E+09  0.121947E+32  0.000000E+00  0.000000E+00  0.000000E+00  0.000000E+00  0.100000E+01  0.309054E+03  0.301744E+03  0.296600E+03
  0.385000E-02  0.500000E-04  0.134329E+03  0.292916E+01  0.243776E+24  0.113356E-01  0.307417E+03  0.300251E+03  0.296318E+03  0.103459E+04  0.375881E+00  0.476589E-05  0.100815E+09  0.122881E+32  0.000000E+00  0.000000E+00  0.000000E+00  0.000000E+00  0.100000E+01  0.307417E+03  0.300251E+03  0.296318E+03
  0.395000E-02  0.500000E-04  0.132428E+03 -0.702431E+00  0.245222E+24  0.114028E-01  0.306785E+03  0.304393E+03  0.296395E+03  0.103859E+04  0.370861E+00  0.473535E-05  0.101116E+09  0.123979E+32  0.000000E+00  0.000000E+00  0.000000E+00  0.000000E+00  0.100000E+01  0.306785E+03  0.304393E+03  0.296395E+03
  0.405000E-02  0.500000E-04  0.129997E+03  0.563976E+00  0.245767E+24  0.114282E-01  0.308392E+03  0.302739E+03  0.295847E+03  0.104635E+04  0.363100E+00  0.473102E-05  0.101412E+09  0.124618E+32  0.000000E+00  0.000000E+00  0.000000E+00  0.000000E+00  0.100000E+01  0.308392E+03  0.302739E+03  0.295847E+03
  0.415000E-02  0.500000E-04  0.127262E+03  0.225764E+01  0.247723E+24  0.115191E-01  0.307865E+03  0.301808E+03  0.295956E+03  0.105287E+04  0.355817E+00  0.469166E-05  0.102642E+09  0.127134E+32  0.000000E+00  0.000000E+00  0.000000E+00  0.000000E+00  0.100000E+01  0.307865E+03  0.301808E+03  0.295956E+03
  0.425000E-02  0.500000E-04  0.123664E+03  0.263510E+00  0.246372E+24  0.114563E-01  0.310987E+03  0.304370E+03  0.295897E+03  0.105775E+04  0.343963E+00  0.472931E-05  0.102469E+09  0.126227E+32  0.000000E+00  0.000000E+00  0.000000E+00  0.000000E+00  0.100000E+01  0.310987E+03  0.304370E+03  0.295897E+03
  0.435000E-02  0.500000E-04  0.122537E+03  0.131327E+01  0.248355E+24  0.115485E-01  0.307204E+03  0.302618E+03  0.296360E+03  0.105329E+04  0.342941E+00  0.467721E-05  0.103231E+09  0.128190E+32  0.000000E+00  0.000000E+00  0.000000E+00  0.000000E+00  0.100000E+01  0.307204E+03  0.302618E+03  0.296360E+03
  0.445000E-02  0.500000E-04  0.122606E+03  0.117878E+01  0.241521E+24  0.112307E-01  0.306766E+03  0.303467E+03  0.296184E+03  0.102285E+04  0.343375E+00  0.480783E-05  0.995274E+08  0.120190E+32  0.000000E+00  0.000000E+00  0.000000E+00  0.000000E+00  0.100000E+01  0.306766E+03  0.303467E+03  0.296184E+03
  0.455000E-02  0.500000E-04  0.122674E+03 -0.967191E+00  0.242594E+24  0.112806E-01  0.306116E+03  0.299591E+03  0.296651E+03  0.102522E+04  0.343925E+00  0.478403E-05  0.100547E+09  0.121961E+32  0.000000E+00  0.000000E+00  0.000000E+00  0.000000E+00  0.100000E+01  0.306116E+03  0.299591E+03  0.296651E+03
  0.465000E-02  0.500000E-04  0.119995E+03 -0.512829E+00  0.245227E+24  0.114031E-01  0.307663E+03  0.305259E+03  0.296131E+03  0.104158E+04  0.335559E+00  0.473863E-05  0.102152E+09  0.125252E+32  0.000000E+00  0.000000E+00  0.000000E+00  0.000000E+00  0.100000E+01  0.307663E+03  0.305259E+03  0.296131E+03
  0.475000E-02  0.500000E-04  0.119656E+03  0.217136E+01  0.240730E+24  0.111939E-01  0.311067E+03  0.307169E+03  0.296553E+03  0.103379E+04  0.332828E+00  0.484046E-05  0.100452E+09  0.120909E+32  0.000000E+00  0.000000E+00  0.000000E+00  0.000000E+00  0.100000E+01  0.311067E+03  0.307169E+03  0.296553E+03
  0.485000E-02  0.500000E-04  0.116601E+03  0.212895E+01  0.243215E+24  0.113095E-01  0.310055E+03  0.304552E+03  0.295924E+03  0.104106E+04  0.324859E+00  0.478711E-05  0.100742E+09  0.122510E+32  0.000000E+00  0.000000E+00  0.000000E+00  0.000000E+00  0.100000E+01  0.310055E+03  0.304552E+03  0.295924E+03
  0.495000E-02  0.500000E-04  0.118021E+03 -0.291810E+00  0.237315E+24  0.110352E-01  0.309625E+03  0.306801E+03  0.296560E+03  0.101440E+04  0.328991E+00  0.490440E-05  0.988713E+08  0.117318E+32  0.000000E+00  0.000000E+00  0.000000E+00  0.000000E+00  0.100000E+01  0.309625E+03  0.306801E+03  0.296560E+03
  0.505000E-02  0.500000E-04  0.117044E+03  0.274303E+00  0.240643E+24  0.111899E-01  0.305720E+03  0.301580E+03  0.296730E+03  0.101565E+04  0.328345E+00  0.482127E-05  0.993683E+08  0.119561E+32  0.000000E+00  0.000000E+00  0.000000E+00  0.000000E+00  0.100000E+01  0.305720E+03  0.301580E+03  0.296730E+03
  0.515000E-02  0.500000E-04  0.115113E+03  0.681008E+00  0.241456E+24  0.112277E-01  0.305616E+03  0.300924E+03  0.295864E+03  0.101874E+04  0.322988E+00  0.480461E-05  0.999356E+08  0.120651E+32  0.000000E+00  0.000000E+00  0.000000E+00  0.000000E+00  0.100000E+01  0.305616E+03  0.300924E+03  0.295864E+03
  0.525000E-02  0.500000E-04  0.117350E+03 -0.394789E+01  0.238679E+24  0.110986E-01  0.308411E+03  0.303129E+03  0.296162E+03  0.101623E+04  0.327948E+00  0.487159E-05  0.988126E+08  0.117923E+32  0.000000E+00  0.000000E+00  0.000000E+00  0.000000E+00  0.100000E+01  0.308411E+03  0.303129E+03  0.296162E+03
  0.535000E-02  0.500000E-04  0.120523E+03  0.171249E+01  0.240140E+24  0.111665E-01  0.306965E+03  0.303376E+03  0.296194E+03  0.101766E+04  0.337451E+00  0.483626E-05  0.993068E+08  0.119238E+32  0.000000E+00  0.000000E+00  0.000000E+00  0.000000E+00  0.100000E+01  0.306965E+03  0.303376E+03  0.296194E+03
  0.545000E-02  0.500000E-04  0.118570E+03 -0.170300E+01  0.239814E+24  0.111513E-01  0.305721E+03  0.301091E+03  0.296258E+03  0.101216E+04  0.332658E+00  0.483793E-05  0.989878E+08  0.118693E+32  0.000000E+00  0.000000E+00  0.000000E+00  0.000000E+00  0.100000E+01  0.305721E+03  0.301091E+03  0.296258E+03