TITLE=" Box                                                                     /                                                                         "
VARIABLES="X",        "Y",      "Vx   ",      "Vy   ",      "Nden ",      "Rho  ",      "Ttrn ",      "Trot ",      "Tvib ",      "Press",      "Ma   ",      "Lambd",      "Relac",      "Coll ",      "frac1",      "Ttrn1",      "Trot1",      "Tvib1",      "frac2",      "Ttrn2",      "Trot2",      "Tvib2",      "rho_dif",      "Ma_dif,      "Pa_dif",      "T_dif",      "V_ref", ,      "Rho_ref",      "P_ref"
ZONE T="DSMC,BG", I=  200, J=   50, F=POINT
-0.395000E-02	0.500000E-04	0.801755E+03	0.254709E+02	0.129198E+25	0.600769E-01	0.100636E+03	0.846425E+02	0.233621E+03	0.179497E+04	0.392213E+01	0.680199E-06	0.386874E+09	0.249916E+33	0.000000E+00	0.000000E+00	0.000000E+00	0.000000E+00	0.100000E+01	0.100636E+03	0.846425E+02	0.233621E+03	3.743872E-01	2.887000E-02	1.662196E+00	1.287700E+00	8.025110E+02	5.985240E-02	1.765380E+03
-0.385000E-02	0.500000E-04	0.739925E+03	0.687355E+02	0.139937E+25	0.650709E-01	0.145431E+03	0.116896E+03	0.246201E+03	0.280957E+04	0.302248E+01	0.688547E-06	0.480336E+09	0.336084E+33	0.000000E+00	0.000000E+00	0.000000E+00	0.000000E+00	0.100000E+01	0.145431E+03	0.116896E+03	0.246201E+03	3.742917E-01	2.285000E-02	1.625089E+00	1.250977E+00	7.410810E+02	6.482780E-02	2.764280E+03
-0.375000E-02	0.500000E-04	0.711546E+03	0.902514E+02	0.139048E+25	0.646574E-01	0.161653E+03	0.131175E+03	0.250670E+03	0.310311E+04	0.276704E+01	0.711515E-06	0.534037E+09	0.371284E+33	0.000000E+00	0.000000E+00	0.000000E+00	0.000000E+00	0.100000E+01	0.161653E+03	0.131175E+03	0.250670E+03	3.321241E-01	3.320000E-03	1.450263E-02	3.470221E-01	7.113530E+02	6.487250E-02	3.102660E+03
-0.365000E-02	0.500000E-04	0.674883E+03	0.741950E+02	0.111182E+25	0.516996E-01	0.185767E+03	0.149123E+03	0.257350E+03	0.285136E+04	0.244338E+01	0.921321E-06	0.461072E+09	0.256315E+33	0.000000E+00	0.000000E+00	0.000000E+00	0.000000E+00	0.100000E+01	0.185767E+03	0.149123E+03	0.257350E+03	1.013415E+00	2.869000E-02	6.283356E-01	1.641751E+00	6.772360E+02	5.222620E-02	2.833500E+03
-0.355000E-02	0.500000E-04	0.625154E+03	0.526654E+02	0.862732E+24	0.401170E-01	0.215225E+03	0.172450E+03	0.264650E+03	0.256340E+04	0.209756E+01	0.123183E-05	0.356739E+09	0.153885E+33	0.000000E+00	0.000000E+00	0.000000E+00	0.000000E+00	0.100000E+01	0.215225E+03	0.172450E+03	0.264650E+03	5.996871E-01	4.372000E-02	1.732123E+00	2.332381E+00	6.309040E+02	4.035830E-02	2.519380E+03
-0.345000E-02	0.500000E-04	0.578584E+03	0.398828E+02	0.712245E+24	0.331194E-01	0.237714E+03	0.191998E+03	0.270084E+03	0.233740E+04	0.184505E+01	0.152963E-05	0.294020E+09	0.104707E+33	0.000000E+00	0.000000E+00	0.000000E+00	0.000000E+00	0.100000E+01	0.237714E+03	0.191998E+03	0.270084E+03	1.425779E+00	3.418000E-02	3.372667E-01	1.762881E+00	5.841240E+02	3.359500E-02	2.329530E+03
-0.335000E-02	0.500000E-04	0.536247E+03	0.293019E+02	0.610493E+24	0.283879E-01	0.255844E+03	0.210831E+03	0.274626E+03	0.215628E+04	0.164689E+01	0.181767E-05	0.250209E+09	0.763753E+32	0.000000E+00	0.000000E+00	0.000000E+00	0.000000E+00	0.100000E+01	0.255844E+03	0.210831E+03	0.274626E+03	2.293055E+00	2.093000E-02	9.852535E-01	1.308120E+00	5.394160E+02	2.904640E-02	2.177630E+03
-0.325000E-02	0.500000E-04	0.494283E+03	0.246563E+02	0.549289E+24	0.255419E-01	0.271206E+03	0.226106E+03	0.278263E+03	0.205660E+04	0.147403E+01	0.204987E-05	0.224476E+09	0.616512E+32	0.000000E+00	0.000000E+00	0.000000E+00	0.000000E+00	0.100000E+01	0.271206E+03	0.226106E+03	0.278263E+03	9.922378E-01	2.355000E-02	2.414659E-01	1.233194E+00	4.991370E+02	2.579660E-02	2.051640E+03
-0.315000E-02	0.500000E-04	0.462460E+03	0.203628E+02	0.496014E+24	0.230646E-01	0.280747E+03	0.238340E+03	0.281166E+03	0.192246E+04	0.135512E+01	0.228975E-05	0.202910E+09	0.503230E+32	0.000000E+00	0.000000E+00	0.000000E+00	0.000000E+00	0.100000E+01	0.280747E+03	0.238340E+03	0.281166E+03	1.993407E+00	1.488000E-02	1.121913E+00	8.714659E-01	4.655360E+02	2.352900E-02	1.944150E+03
-0.305000E-02	0.500000E-04	0.434426E+03	0.146546E+02	0.459770E+24	0.213793E-01	0.288475E+03	0.248244E+03	0.282857E+03	0.183104E+04	0.125530E+01	0.248708E-05	0.188253E+09	0.432765E+32	0.000000E+00	0.000000E+00	0.000000E+00	0.000000E+00	0.100000E+01	0.288475E+03	0.248244E+03	0.282857E+03	5.313429E-01	3.386000E-02	8.936335E-01	1.425110E+00	4.430050E+02	2.149320E-02	1.814750E+03
-0.295000E-02	0.500000E-04	0.417414E+03	0.102647E+02	0.424967E+24	0.197610E-01	0.291205E+03	0.254534E+03	0.284295E+03	0.170846E+04	0.120016E+01	0.269710E-05	0.173797E+09	0.369291E+32	0.000000E+00	0.000000E+00	0.000000E+00	0.000000E+00	0.100000E+01	0.291205E+03	0.254534E+03	0.284295E+03	2.696314E+00	1.066000E-02	1.859675E+00	8.365748E-01	4.193070E+02	2.030110E-02	1.740530E+03
-0.285000E-02	0.500000E-04	0.391447E+03	0.106811E+02	0.412589E+24	0.191854E-01	0.295731E+03	0.259329E+03	0.285550E+03	0.168447E+04	0.111693E+01	0.278875E-05	0.168173E+09	0.346931E+32	0.000000E+00	0.000000E+00	0.000000E+00	0.000000E+00	0.100000E+01	0.295731E+03	0.259329E+03	0.285550E+03	1.022132E-01	3.195000E-02	1.430186E+00	1.328547E+00	4.000010E+02	1.916580E-02	1.660550E+03
-0.275000E-02	0.500000E-04	0.374972E+03	0.945276E+01	0.394738E+24	0.183553E-01	0.297099E+03	0.263687E+03	0.286204E+03	0.161904E+04	0.106740E+01	0.291823E-05	0.161117E+09	0.317994E+32	0.000000E+00	0.000000E+00	0.000000E+00	0.000000E+00	0.100000E+01	0.297099E+03	0.263687E+03	0.286204E+03	1.164504E+00	7.110000E-03	8.076993E-01	3.574210E-01	3.767760E+02	1.857030E-02	1.632170E+03
-0.265000E-02	0.500000E-04	0.362206E+03	0.642915E+01	0.379581E+24	0.176505E-01	0.298058E+03	0.266806E+03	0.287038E+03	0.156191E+04	0.102923E+01	0.303720E-05	0.154480E+09	0.293189E+32	0.000000E+00	0.000000E+00	0.000000E+00	0.000000E+00	0.100000E+01	0.298058E+03	0.266806E+03	0.287038E+03	1.168734E+00	5.240000E-03	9.139113E-01	2.543003E-01	3.598560E+02	1.785800E-02	1.576250E+03
-0.255000E-02	0.500000E-04	0.345687E+03	0.749725E+01	0.371696E+24	0.172839E-01	0.300756E+03	0.272258E+03	0.287487E+03	0.154330E+04	0.977954E+00	0.310863E-05	0.151892E+09	0.282288E+32	0.000000E+00	0.000000E+00	0.000000E+00	0.000000E+00	0.100000E+01	0.300756E+03	0.272258E+03	0.287487E+03	4.569573E-01	8.333000E-03	8.798990E-01	4.238305E-01	3.478890E+02	1.720510E-02	1.529780E+03
-0.245000E-02	0.500000E-04	0.334107E+03	0.759893E+01	0.357496E+24	0.166235E-01	0.303112E+03	0.275387E+03	0.288163E+03	0.149597E+04	0.941536E+00	0.323842E-05	0.146422E+09	0.261725E+32	0.000000E+00	0.000000E+00	0.000000E+00	0.000000E+00	0.100000E+01	0.303112E+03	0.275387E+03	0.288163E+03	1.025187E+00	4.906000E-03	5.426522E-01	4.821700E-01	3.315850E+02	1.679480E-02	1.504110E+03
-0.235000E-02	0.500000E-04	0.320266E+03	0.502658E+01	0.349296E+24	0.162423E-01	0.304273E+03	0.279680E+03	0.288485E+03	0.146726E+04	0.900685E+00	0.331761E-05	0.142865E+09	0.249511E+32	0.000000E+00	0.000000E+00	0.000000E+00	0.000000E+00	0.100000E+01	0.304273E+03	0.279680E+03	0.288485E+03	2.098145E+00	1.062200E-02	1.365287E+00	7.329415E-01	3.152960E+02	1.658670E-02	1.487430E+03
-0.225000E-02	0.500000E-04	0.305361E+03	0.477778E+01	0.342208E+24	0.159127E-01	0.304275E+03	0.280402E+03	0.289252E+03	0.143749E+04	0.858764E+00	0.338633E-05	0.140129E+09	0.239767E+32	0.000000E+00	0.000000E+00	0.000000E+00	0.000000E+00	0.100000E+01	0.304275E+03	0.280402E+03	0.289252E+03	7.812158E-01	2.919000E-03	8.347679E-01	5.322714E-02	3.064670E+02	1.603750E-02	1.449540E+03
-0.215000E-02	0.500000E-04	0.299735E+03	0.503820E+01	0.331628E+24	0.154207E-01	0.305279E+03	0.283125E+03	0.289902E+03	0.139765E+04	0.841570E+00	0.349724E-05	0.135676E+09	0.224970E+32	0.000000E+00	0.000000E+00	0.000000E+00	0.000000E+00	0.100000E+01	0.305279E+03	0.283125E+03	0.289902E+03	1.559655E+00	1.235600E-02	2.318181E+00	7.593594E-01	2.964710E+02	1.566310E-02	1.430430E+03
-0.205000E-02	0.500000E-04	0.286459E+03	0.423345E+01	0.330736E+24	0.153792E-01	0.307552E+03	0.285886E+03	0.290628E+03	0.140427E+04	0.801293E+00	0.351319E-05	0.135686E+09	0.224382E+32	0.000000E+00	0.000000E+00	0.000000E+00	0.000000E+00	0.100000E+01	0.307552E+03	0.285886E+03	0.290628E+03	6.674039E-01	1.650800E-02	5.569957E-01	1.104893E-01	2.925430E+02	1.527690E-02	1.396470E+03
-0.195000E-02	0.500000E-04	0.280704E+03	0.412118E+01	0.321469E+24	0.149483E-01	0.305685E+03	0.284434E+03	0.290911E+03	0.135663E+04	0.787589E+00	0.360896E-05	0.131862E+09	0.211949E+32	0.000000E+00	0.000000E+00	0.000000E+00	0.000000E+00	0.100000E+01	0.305685E+03	0.284434E+03	0.290911E+03	2.210990E+00	1.202300E-02	3.140883E+00	9.302750E-01	2.776960E+02	1.528250E-02	1.399920E+03
-0.185000E-02	0.500000E-04	0.274712E+03	0.209801E+01	0.315332E+24	0.146629E-01	0.307223E+03	0.286521E+03	0.290924E+03	0.133743E+04	0.768782E+00	0.368383E-05	0.130148E+09	0.205199E+32	0.000000E+00	0.000000E+00	0.000000E+00	0.000000E+00	0.100000E+01	0.307223E+03	0.286521E+03	0.290924E+03	3.111860E-01	4.221000E-03	7.478863E-01	4.368365E-01	2.737890E+02	1.470860E-02	1.347470E+03
-0.175000E-02	0.500000E-04	0.271693E+03	0.165648E+01	0.309342E+24	0.143844E-01	0.307365E+03	0.286713E+03	0.291325E+03	0.131263E+04	0.760153E+00	0.375558E-05	0.126744E+09	0.196036E+32	0.000000E+00	0.000000E+00	0.000000E+00	0.000000E+00	0.100000E+01	0.307365E+03	0.286713E+03	0.291325E+03	3.753362E-02	8.066000E-03	6.545477E-01	6.168995E-01	2.696380E+02	1.438980E-02	1.321250E+03
-0.165000E-02	0.500000E-04	0.263467E+03	0.374790E+01	0.310571E+24	0.144416E-01	0.304635E+03	0.285088E+03	0.291636E+03	0.130614E+04	0.740493E+00	0.373239E-05	0.127379E+09	0.197801E+32	0.000000E+00	0.000000E+00	0.000000E+00	0.000000E+00	0.100000E+01	0.304635E+03	0.285088E+03	0.291636E+03	2.135004E-01	1.302100E-02	1.532413E+00	1.746074E+00	2.611120E+02	1.441080E-02	1.326310E+03
-0.155000E-02	0.500000E-04	0.256797E+03	0.885269E+00	0.309669E+24	0.143996E-01	0.303742E+03	0.284966E+03	0.291707E+03	0.129853E+04	0.722738E+00	0.374051E-05	0.127339E+09	0.197166E+32	0.000000E+00	0.000000E+00	0.000000E+00	0.000000E+00	0.100000E+01	0.303742E+03	0.284966E+03	0.291707E+03	1.684250E+00	7.800000E-03	6.334835E-01	1.050937E+00	2.553350E+02	1.415910E-02	1.290330E+03
-0.145000E-02	0.500000E-04	0.248440E+03	0.512667E+01	0.308088E+24	0.143261E-01	0.306327E+03	0.289922E+03	0.291694E+03	0.130289E+04	0.696405E+00	0.376768E-05	0.126673E+09	0.195132E+32	0.000000E+00	0.000000E+00	0.000000E+00	0.000000E+00	0.100000E+01	0.306327E+03	0.289922E+03	0.291694E+03	9.672340E-01	9.852000E-03	8.586933E-01	1.083222E-01	2.450630E+02	1.418820E-02	1.291750E+03
-0.135000E-02	0.500000E-04	0.244069E+03	0.395448E+01	0.302788E+24	0.140797E-01	0.307538E+03	0.289015E+03	0.292047E+03	0.128554E+04	0.682749E+00	0.383741E-05	0.125134E+09	0.189446E+32	0.000000E+00	0.000000E+00	0.000000E+00	0.000000E+00	0.100000E+01	0.307538E+03	0.289015E+03	0.292047E+03	2.020970E+00	1.248000E-03	2.078094E+00	5.757043E-02	2.444770E+02	1.379800E-02	1.259100E+03
-0.125000E-02	0.500000E-04	0.244108E+03	0.578866E+00	0.296945E+24	0.138079E-01	0.305598E+03	0.288710E+03	0.292150E+03	0.125278E+04	0.684933E+00	0.390674E-05	0.121705E+09	0.180698E+32	0.000000E+00	0.000000E+00	0.000000E+00	0.000000E+00	0.100000E+01	0.305598E+03	0.288710E+03	0.292150E+03	1.160672E+00	2.092700E-02	1.504427E+00	3.439777E-01	2.370550E+02	1.396910E-02	1.271770E+03
-0.115000E-02	0.500000E-04	0.240240E+03	0.242549E+00	0.295630E+24	0.137468E-01	0.305997E+03	0.289378E+03	0.292023E+03	0.124887E+04	0.673640E+00	0.392540E-05	0.121716E+09	0.179915E+32	0.000000E+00	0.000000E+00	0.000000E+00	0.000000E+00	0.100000E+01	0.305997E+03	0.289378E+03	0.292023E+03	3.346793E-02	2.378000E-02	4.084526E-02	6.863048E-03	2.317070E+02	1.374220E-02	1.248360E+03
-0.105000E-02	0.500000E-04	0.229980E+03	0.311209E+01	0.298655E+24	0.138875E-01	0.305133E+03	0.292405E+03	0.292333E+03	0.125808E+04	0.645843E+00	0.388289E-05	0.122452E+09	0.182855E+32	0.000000E+00	0.000000E+00	0.000000E+00	0.000000E+00	0.100000E+01	0.305133E+03	0.292405E+03	0.292333E+03	2.725388E+00	6.629000E-03	2.043594E+00	6.819585E-01	2.284010E+02	1.351410E-02	1.232630E+03
-0.950000E-03	0.500000E-04	0.222985E+03	0.412216E+01	0.295637E+24	0.137471E-01	0.308155E+03	0.294011E+03	0.292932E+03	0.125770E+04	0.623170E+00	0.393221E-05	0.121844E+09	0.180107E+32	0.000000E+00	0.000000E+00	0.000000E+00	0.000000E+00	0.100000E+01	0.308155E+03	0.294011E+03	0.292932E+03	2.457245E+00	3.938000E-03	2.303399E+00	1.540245E-01	2.246030E+02	1.341340E-02	1.229060E+03
-0.850000E-03	0.500000E-04	0.214948E+03	0.537232E+01	0.291835E+24	0.135703E-01	0.309589E+03	0.294641E+03	0.293340E+03	0.124730E+04	0.599401E+00	0.398806E-05	0.120006E+09	0.175110E+32	0.000000E+00	0.000000E+00	0.000000E+00	0.000000E+00	0.100000E+01	0.309589E+03	0.294641E+03	0.293340E+03	2.181184E+00	2.149100E-02	2.888885E+00	7.072979E-01	2.219380E+02	1.327750E-02	1.211780E+03
-0.750000E-03	0.500000E-04	0.212916E+03	0.964159E+00	0.282832E+24	0.131517E-01	0.308463E+03	0.293808E+03	0.293681E+03	0.120443E+04	0.594637E+00	0.411126E-05	0.116308E+09	0.164478E+32	0.000000E+00	0.000000E+00	0.000000E+00	0.000000E+00	0.100000E+01	0.308463E+03	0.293808E+03	0.293681E+03	3.452952E+00	8.943000E-03	3.473075E+00	2.042176E-02	2.161420E+02	1.361380E-02	1.247000E+03
-0.650000E-03	0.500000E-04	0.213050E+03	-0.149667E-02	0.282396E+24	0.131314E-01	0.307611E+03	0.295163E+03	0.293354E+03	0.119925E+04	0.595827E+00	0.411477E-05	0.116766E+09	0.164871E+32	0.000000E+00	0.000000E+00	0.000000E+00	0.000000E+00	0.100000E+01	0.307611E+03	0.295163E+03	0.293354E+03	1.733327E+00	3.970000E-03	2.080282E+00	3.469140E-01	2.148070E+02	1.336100E-02	1.224460E+03
-0.550000E-03	0.500000E-04	0.216067E+03	0.443936E+00	0.277271E+24	0.128931E-01	0.309596E+03	0.296873E+03	0.293253E+03	0.118508E+04	0.602327E+00	0.419757E-05	0.114334E+09	0.158507E+32	0.000000E+00	0.000000E+00	0.000000E+00	0.000000E+00	0.100000E+01	0.309596E+03	0.296873E+03	0.293253E+03	1.874745E+00	1.469000E-02	2.139587E+00	2.648332E-01	2.110570E+02	1.313710E-02	1.210710E+03
-0.450000E-03	0.500000E-04	0.206736E+03	0.187424E+01	0.282793E+24	0.131499E-01	0.309747E+03	0.295786E+03	0.293436E+03	0.120927E+04	0.576197E+00	0.411611E-05	0.116130E+09	0.164204E+32	0.000000E+00	0.000000E+00	0.000000E+00	0.000000E+00	0.100000E+01	0.309747E+03	0.295786E+03	0.293436E+03	2.129067E-02	9.779000E-03	1.274307E-01	1.499120E-01	2.030750E+02	1.315270E-02	1.207730E+03
-0.350000E-03	0.500000E-04	0.203673E+03	0.442435E+00	0.281344E+24	0.130825E-01	0.306660E+03	0.295136E+03	0.293352E+03	0.119109E+04	0.570489E+00	0.412695E-05	0.116141E+09	0.163377E+32	0.000000E+00	0.000000E+00	0.000000E+00	0.000000E+00	0.100000E+01	0.306660E+03	0.295136E+03	0.293352E+03	9.600614E-01	1.649500E-02	3.436311E-01	1.303649E+00	1.990370E+02	1.295750E-02	1.195190E+03
-0.250000E-03	0.500000E-04	0.198311E+03	0.154632E+01	0.280347E+24	0.130361E-01	0.306394E+03	0.295198E+03	0.293489E+03	0.118584E+04	0.555727E+00	0.414073E-05	0.115028E+09	0.161240E+32	0.000000E+00	0.000000E+00	0.000000E+00	0.000000E+00	0.100000E+01	0.306394E+03	0.295198E+03	0.293489E+03	3.773570E-01	2.351200E-02	1.356020E+00	1.734213E+00	1.915640E+02	1.298700E-02	1.202030E+03
-0.150000E-03	0.500000E-04	0.193971E+03	0.239356E+01	0.280062E+24	0.130229E-01	0.304058E+03	0.293570E+03	0.293793E+03	0.117560E+04	0.545674E+00	0.413702E-05	0.115254E+09	0.161392E+32	0.000000E+00	0.000000E+00	0.000000E+00	0.000000E+00	0.100000E+01	0.304058E+03	0.293570E+03	0.293793E+03	1.723250E+00	1.662000E-02	8.139490E-01	9.088349E-01	1.889120E+02	1.280040E-02	1.166070E+03
-0.499999E-04	0.500000E-04	0.190034E+03	0.221360E+01	0.277706E+24	0.129133E-01	0.305013E+03	0.294261E+03	0.293488E+03	0.116937E+04	0.533756E+00	0.417540E-05	0.114883E+09	0.159519E+32	0.000000E+00	0.000000E+00	0.000000E+00	0.000000E+00	0.100000E+01	0.305013E+03	0.294261E+03	0.293488E+03	1.649795E+00	5.880000E-03	7.493530E-01	9.008039E-01	1.888020E+02	1.270200E-02	1.160640E+03
0.499999E-04	0.500000E-04	0.194400E+03	0.147759E+01	0.270644E+24	0.125850E-01	0.306526E+03	0.298265E+03	0.294426E+03	0.114529E+04	0.544648E+00	0.428964E-05	0.111366E+09	0.150702E+32	0.000000E+00	0.000000E+00	0.000000E+00	0.000000E+00	0.100000E+01	0.306526E+03	0.298265E+03	0.294426E+03	7.638573E-01	1.550200E-02	1.299467E+00	5.352230E-01	1.893760E+02	1.268150E-02	1.160270E+03
0.150000E-03	0.500000E-04	0.190697E+03	-0.300140E-01	0.272364E+24	0.126649E-01	0.303465E+03	0.291984E+03	0.294160E+03	0.114105E+04	0.536947E+00	0.425187E-05	0.112196E+09	0.152790E+32	0.000000E+00	0.000000E+00	0.000000E+00	0.000000E+00	0.100000E+01	0.303465E+03	0.291984E+03	0.294160E+03	1.946934E+00	1.058800E-02	1.780647E-01	1.768611E+00	1.885960E+02	1.242070E-02	1.139020E+03
0.250000E-03	0.500000E-04	0.186111E+03	0.558065E+00	0.274147E+24	0.127479E-01	0.302950E+03	0.292035E+03	0.294228E+03	0.114658E+04	0.524482E+00	0.422242E-05	0.112149E+09	0.153727E+32	0.000000E+00	0.000000E+00	0.000000E+00	0.000000E+00	0.100000E+01	0.302950E+03	0.292035E+03	0.294228E+03	2.058963E+00	6.039000E-03	5.571128E-01	1.502084E+00	1.853450E+02	1.248810E-02	1.140210E+03
0.350000E-03	0.500000E-04	0.178206E+03	-0.813696E-02	0.279234E+24	0.129844E-01	0.303644E+03	0.295956E+03	0.294001E+03	0.117053E+04	0.501628E+00	0.414787E-05	0.115435E+09	0.161167E+32	0.000000E+00	0.000000E+00	0.000000E+00	0.000000E+00	0.100000E+01	0.303644E+03	0.295956E+03	0.294001E+03	3.873541E+00	1.129600E-02	2.314327E+00	1.559324E+00	1.836250E+02	1.249100E-02	1.143750E+03
0.450000E-03	0.500000E-04	0.174860E+03	0.508602E+01	0.277403E+24	0.128993E-01	0.304471E+03	0.297278E+03	0.294477E+03	0.116602E+04	0.491747E+00	0.417809E-05	0.114390E+09	0.158661E+32	0.000000E+00	0.000000E+00	0.000000E+00	0.000000E+00	0.100000E+01	0.304471E+03	0.297278E+03	0.294477E+03	4.793053E+00	1.478000E-02	2.715577E+00	2.077571E+00	1.820640E+02	1.229550E-02	1.134780E+03
0.550000E-03	0.500000E-04	0.170957E+03	0.209190E+01	0.268103E+24	0.124668E-01	0.307366E+03	0.298330E+03	0.294767E+03	0.113764E+04	0.478337E+00	0.433327E-05	0.110642E+09	0.148317E+32	0.000000E+00	0.000000E+00	0.000000E+00	0.000000E+00	0.100000E+01	0.307366E+03	0.298330E+03	0.294767E+03	2.307470E-01	1.301400E-02	4.499191E-01	2.183931E-01	1.758120E+02	1.249560E-02	1.142770E+03
0.650000E-03	0.500000E-04	0.165631E+03	0.108356E+01	0.272717E+24	0.126813E-01	0.301987E+03	0.295399E+03	0.294473E+03	0.113697E+04	0.467518E+00	0.424120E-05	0.112649E+09	0.153606E+32	0.000000E+00	0.000000E+00	0.000000E+00	0.000000E+00	0.100000E+01	0.301987E+03	0.295399E+03	0.294473E+03	1.735575E+00	2.525200E-02	5.361883E-01	1.199765E+00	1.756260E+02	1.246310E-02	1.130890E+03
0.750000E-03	0.500000E-04	0.169445E+03	0.800323E+00	0.263172E+24	0.122375E-01	0.307003E+03	0.297864E+03	0.294731E+03	0.111540E+04	0.474355E+00	0.441315E-05	0.108541E+09	0.142824E+32	0.000000E+00	0.000000E+00	0.000000E+00	0.000000E+00	0.100000E+01	0.307003E+03	0.297864E+03	0.294731E+03	1.600353E-01	1.900200E-02	2.599626E-02	1.346169E-01	1.760930E+02	1.225710E-02	1.115690E+03
0.850000E-03	0.500000E-04	0.164311E+03	0.739976E+00	0.267906E+24	0.124576E-01	0.305622E+03	0.295836E+03	0.295002E+03	0.113036E+04	0.461021E+00	0.433028E-05	0.110283E+09	0.147728E+32	0.000000E+00	0.000000E+00	0.000000E+00	0.000000E+00	0.100000E+01	0.305622E+03	0.295836E+03	0.295002E+03	1.552382E+00	2.223200E-02	3.981825E-02	1.513223E+00	1.735450E+02	1.226570E-02	1.129910E+03
0.950000E-03	0.500000E-04	0.160076E+03	0.184567E+01	0.267310E+24	0.124299E-01	0.305775E+03	0.299558E+03	0.295006E+03	0.112841E+04	0.449051E+00	0.434048E-05	0.110504E+09	0.147695E+32	0.000000E+00	0.000000E+00	0.000000E+00	0.000000E+00	0.100000E+01	0.305775E+03	0.299558E+03	0.295006E+03	1.879951E+00	3.231300E-02	5.367028E-01	1.343542E+00	1.727530E+02	1.219840E-02	1.122370E+03
0.105000E-02	0.500000E-04	0.162913E+03	-0.834117E+00	0.259290E+24	0.120570E-01	0.307523E+03	0.301082E+03	0.294701E+03	0.110081E+04	0.455685E+00	0.448113E-05	0.107188E+09	0.138964E+32	0.000000E+00	0.000000E+00	0.000000E+00	0.000000E+00	0.100000E+01	0.307523E+03	0.301082E+03	0.294701E+03	7.206254E-01	1.565000E-02	1.944018E+00	1.222953E+00	1.695430E+02	1.214420E-02	1.122420E+03
0.115000E-02	0.500000E-04	0.161358E+03	0.117237E+01	0.263317E+24	0.122442E-01	0.307607E+03	0.300160E+03	0.295314E+03	0.111821E+04	0.451277E+00	0.441289E-05	0.108755E+09	0.143185E+32	0.000000E+00	0.000000E+00	0.000000E+00	0.000000E+00	0.100000E+01	0.307607E+03	0.300160E+03	0.295314E+03	2.093692E+00	1.533700E-02	2.291997E-01	1.864403E+00	1.684000E+02	1.199050E-02	1.115650E+03
0.125000E-02	0.500000E-04	0.161429E+03	-0.525614E+00	0.258942E+24	0.120408E-01	0.309907E+03	0.301722E+03	0.295100E+03	0.110786E+04	0.449790E+00	0.449581E-05	0.108086E+09	0.139940E+32	0.000000E+00	0.000000E+00	0.000000E+00	0.000000E+00	0.100000E+01	0.309907E+03	0.301722E+03	0.295100E+03	1.956455E+00	6.700000E-05	1.914945E+00	4.131124E-02	1.614210E+02	1.227870E-02	1.129280E+03
0.135000E-02	0.500000E-04	0.157306E+03	0.113835E+01	0.263089E+24	0.122336E-01	0.307266E+03	0.298999E+03	0.295310E+03	0.111601E+04	0.440191E+00	0.441549E-05	0.108419E+09	0.142620E+32	0.000000E+00	0.000000E+00	0.000000E+00	0.000000E+00	0.100000E+01	0.307266E+03	0.298999E+03	0.295310E+03	3.102831E-01	3.323000E-03	5.498899E-01	2.381879E-01	1.582970E+02	1.219570E-02	1.109890E+03
0.145000E-02	0.500000E-04	0.154877E+03	0.405290E-01	0.259969E+24	0.120886E-01	0.306040E+03	0.297846E+03	0.295558E+03	0.109837E+04	0.434249E+00	0.446402E-05	0.106822E+09	0.138852E+32	0.000000E+00	0.000000E+00	0.000000E+00	0.000000E+00	0.100000E+01	0.306040E+03	0.297846E+03	0.295558E+03	7.827885E-01	9.730000E-04	1.929545E+00	1.146507E+00	1.554110E+02	1.218360E-02	1.119770E+03
0.155000E-02	0.500000E-04	0.152153E+03	0.956802E+00	0.264632E+24	0.123054E-01	0.305563E+03	0.298488E+03	0.295514E+03	0.111633E+04	0.426953E+00	0.438365E-05	0.109004E+09	0.144230E+32	0.000000E+00	0.000000E+00	0.000000E+00	0.000000E+00	0.100000E+01	0.305563E+03	0.298488E+03	0.295514E+03	1.658445E+00	6.045000E-03	6.371401E-01	1.021711E+00	1.550970E+02	1.210300E-02	1.109240E+03
0.165000E-02	0.500000E-04	0.150522E+03	0.242758E+01	0.260911E+24	0.121324E-01	0.306121E+03	0.299622E+03	0.295282E+03	0.110264E+04	0.422039E+00	0.444820E-05	0.107602E+09	0.140372E+32	0.000000E+00	0.000000E+00	0.000000E+00	0.000000E+00	0.100000E+01	0.306121E+03	0.299622E+03	0.295282E+03	1.054790E+00	4.919000E-03	8.479169E-01	2.065674E-01	1.524530E+02	1.200510E-02	1.093330E+03
0.175000E-02	0.500000E-04	0.152410E+03	0.223604E+00	0.258506E+24	0.120205E-01	0.306128E+03	0.298806E+03	0.295432E+03	0.109250E+04	0.427272E+00	0.448961E-05	0.107050E+09	0.138365E+32	0.000000E+00	0.000000E+00	0.000000E+00	0.000000E+00	0.100000E+01	0.306128E+03	0.298806E+03	0.295432E+03	2.115292E-01	5.623000E-03	4.872252E-01	2.760822E-01	1.501930E+02	1.199510E-02	1.087190E+03
0.185000E-02	0.500000E-04	0.151217E+03	-0.449468E+00	0.259671E+24	0.120747E-01	0.306264E+03	0.299501E+03	0.294930E+03	0.109791E+04	0.423834E+00	0.446996E-05	0.107560E+09	0.139650E+32	0.000000E+00	0.000000E+00	0.000000E+00	0.000000E+00	0.100000E+01	0.306264E+03	0.299501E+03	0.294930E+03	1.395207E+00	2.881000E-03	9.627969E-01	4.323497E-01	1.505140E+02	1.190740E-02	1.087390E+03
0.195000E-02	0.500000E-04	0.152689E+03	0.192784E+01	0.256738E+24	0.119383E-01	0.307973E+03	0.301096E+03	0.295336E+03	0.109157E+04	0.426803E+00	0.452731E-05	0.106377E+09	0.136556E+32	0.000000E+00	0.000000E+00	0.000000E+00	0.000000E+00	0.100000E+01	0.307973E+03	0.301096E+03	0.295336E+03	1.849473E-01	1.378900E-02	9.073620E-02	2.760540E-01	1.475620E+02	1.196040E-02	1.090580E+03
0.205000E-02	0.500000E-04	0.147670E+03	0.105028E+01	0.260070E+24	0.120933E-01	0.307234E+03	0.298254E+03	0.295656E+03	0.110309E+04	0.413246E+00	0.446663E-05	0.107959E+09	0.140385E+32	0.000000E+00	0.000000E+00	0.000000E+00	0.000000E+00	0.100000E+01	0.307234E+03	0.298254E+03	0.295656E+03	1.829993E+00	5.770000E-04	2.943639E+00	1.114122E+00	1.470410E+02	1.187400E-02	1.071090E+03
0.215000E-02	0.500000E-04	0.145053E+03	-0.270154E-01	0.260290E+24	0.121035E-01	0.306808E+03	0.300990E+03	0.295422E+03	0.110249E+04	0.406195E+00	0.446130E-05	0.107095E+09	0.139379E+32	0.000000E+00	0.000000E+00	0.000000E+00	0.000000E+00	0.100000E+01	0.306808E+03	0.300990E+03	0.295422E+03	1.160911E+00	4.390000E-03	1.973033E+00	8.119319E-01	1.460260E+02	1.196380E-02	1.080950E+03
0.225000E-02	0.500000E-04	0.145456E+03	-0.214263E+00	0.256521E+24	0.119282E-01	0.309025E+03	0.301321E+03	0.295801E+03	0.109437E+04	0.405860E+00	0.453501E-05	0.106570E+09	0.136688E+32	0.000000E+00	0.000000E+00	0.000000E+00	0.000000E+00	0.100000E+01	0.309025E+03	0.301321E+03	0.295801E+03	5.177602E-01	4.242000E-03	1.292138E+00	7.744459E-01	1.464080E+02	1.186660E-02	1.080320E+03
0.235000E-02	0.500000E-04	0.143989E+03	0.266348E+01	0.253127E+24	0.117704E-01	0.311185E+03	0.302530E+03	0.295569E+03	0.108744E+04	0.400438E+00	0.460382E-05	0.105014E+09	0.132910E+32	0.000000E+00	0.000000E+00	0.000000E+00	0.000000E+00	0.100000E+01	0.311185E+03	0.302530E+03	0.295569E+03	3.451858E-01	1.139700E-02	8.505451E-01	1.196114E+00	1.472280E+02	1.181110E-02	1.078230E+03
0.245000E-02	0.500000E-04	0.142389E+03	-0.217904E+01	0.253461E+24	0.117859E-01	0.309639E+03	0.301218E+03	0.295361E+03	0.108347E+04	0.396953E+00	0.459205E-05	0.104940E+09	0.132990E+32	0.000000E+00	0.000000E+00	0.000000E+00	0.000000E+00	0.100000E+01	0.309639E+03	0.301218E+03	0.295361E+03	1.473542E+00	7.216000E-03	1.093190E+00	3.810076E-01	1.452620E+02	1.161350E-02	1.071690E+03
0.255000E-02	0.500000E-04	0.142494E+03	0.176187E+01	0.256870E+24	0.119445E-01	0.305301E+03	0.297948E+03	0.295969E+03	0.108266E+04	0.400043E+00	0.451514E-05	0.105663E+09	0.135709E+32	0.000000E+00	0.000000E+00	0.000000E+00	0.000000E+00	0.100000E+01	0.305301E+03	0.297948E+03	0.295969E+03	3.309773E+00	1.216200E-02	1.425116E+00	1.885103E+00	1.482120E+02	1.155560E-02	1.067340E+03
0.265000E-02	0.500000E-04	0.140066E+03	-0.771493E+00	0.253460E+24	0.117859E-01	0.305296E+03	0.299147E+03	0.296167E+03	0.106827E+04	0.393205E+00	0.457586E-05	0.105060E+09	0.133142E+32	0.000000E+00	0.000000E+00	0.000000E+00	0.000000E+00	0.100000E+01	0.305296E+03	0.299147E+03	0.296167E+03	1.420173E+00	1.731500E-02	1.178782E-01	1.538697E+00	1.473650E+02	1.161970E-02	1.069530E+03
0.275000E-02	0.500000E-04	0.137046E+03	0.250187E+01	0.255973E+24	0.119027E-01	0.304836E+03	0.300988E+03	0.295881E+03	0.107723E+04	0.385075E+00	0.452925E-05	0.105534E+09	0.135069E+32	0.000000E+00	0.000000E+00	0.000000E+00	0.000000E+00	0.100000E+01	0.304836E+03	0.300988E+03	0.295881E+03	1.275867E+00	1.777600E-02	2.984311E-01	9.776926E-01	1.440900E+02	1.175180E-02	1.074020E+03
0.285000E-02	0.500000E-04	0.138039E+03	0.916298E+00	0.253402E+24	0.117832E-01	0.303992E+03	0.300325E+03	0.295336E+03	0.106346E+04	0.388348E+00	0.457203E-05	0.104979E+09	0.133009E+32	0.000000E+00	0.000000E+00	0.000000E+00	0.000000E+00	0.100000E+01	0.303992E+03	0.300325E+03	0.295336E+03	1.467115E-01	6.774000E-03	5.850475E-01	4.378666E-01	1.407480E+02	1.180050E-02	1.069700E+03
0.295000E-02	0.500000E-04	0.139515E+03	-0.782794E+00	0.250858E+24	0.116649E-01	0.309124E+03	0.301259E+03	0.295871E+03	0.107056E+04	0.389227E+00	0.463775E-05	0.104372E+09	0.130913E+32	0.000000E+00	0.000000E+00	0.000000E+00	0.000000E+00	0.100000E+01	0.309124E+03	0.301259E+03	0.295871E+03	1.943277E+00	2.540000E-03	1.088503E+00	8.555268E-01	1.410300E+02	1.144040E-02	1.058970E+03
0.305000E-02	0.500000E-04	0.138328E+03	0.676383E+00	0.251653E+24	0.117019E-01	0.310358E+03	0.304841E+03	0.296073E+03	0.107824E+04	0.385146E+00	0.462772E-05	0.104501E+09	0.131490E+32	0.000000E+00	0.000000E+00	0.000000E+00	0.000000E+00	0.100000E+01	0.310358E+03	0.304841E+03	0.296073E+03	9.591235E-01	1.785000E-03	1.812728E+00	8.542639E-01	1.371020E+02	1.159020E-02	1.058870E+03
0.315000E-02	0.500000E-04	0.138127E+03	0.150387E+01	0.249330E+24	0.115938E-01	0.309129E+03	0.303842E+03	0.295540E+03	0.106405E+04	0.385366E+00	0.466620E-05	0.103346E+09	0.128836E+32	0.000000E+00	0.000000E+00	0.000000E+00	0.000000E+00	0.100000E+01	0.309129E+03	0.303842E+03	0.295540E+03	2.317517E-01	4.767000E-03	7.648846E-01	5.326588E-01	1.367760E+02	1.162070E-02	1.072220E+03
0.325000E-02	0.500000E-04	0.134096E+03	0.734584E+00	0.253685E+24	0.117963E-01	0.308012E+03	0.304113E+03	0.295887E+03	0.107872E+04	0.374783E+00	0.458195E-05	0.105244E+09	0.133494E+32	0.000000E+00	0.000000E+00	0.000000E+00	0.000000E+00	0.100000E+01	0.308012E+03	0.304113E+03	0.295887E+03	2.226041E+00	7.050000E-03	1.475505E+00	7.500691E-01	1.371280E+02	1.153660E-02	1.062920E+03
0.335000E-02	0.500000E-04	0.133273E+03	0.223920E+00	0.251693E+24	0.117037E-01	0.305433E+03	0.299151E+03	0.296004E+03	0.106130E+04	0.374046E+00	0.460851E-05	0.104030E+09	0.130918E+32	0.000000E+00	0.000000E+00	0.000000E+00	0.000000E+00	0.100000E+01	0.305433E+03	0.299151E+03	0.296004E+03	2.187076E+00	9.866000E-03	3.545949E-01	2.541662E+00	1.385380E+02	1.145050E-02	1.065070E+03
0.345000E-02	0.500000E-04	0.129403E+03	0.173039E+01	0.255794E+24	0.118944E-01	0.306130E+03	0.301672E+03	0.296298E+03	0.108105E+04	0.362803E+00	0.453721E-05	0.105389E+09	0.134789E+32	0.000000E+00	0.000000E+00	0.000000E+00	0.000000E+00	0.100000E+01	0.306130E+03	0.301672E+03	0.296298E+03	4.014459E+00	1.558000E-02	2.544334E+00	1.470827E+00	1.359460E+02	1.142630E-02	1.053890E+03
0.355000E-02	0.500000E-04	0.128539E+03	-0.172142E+00	0.255629E+24	0.118867E-01	0.305979E+03	0.299438E+03	0.296072E+03	0.107982E+04	0.360437E+00	0.453958E-05	0.106100E+09	0.135611E+32	0.000000E+00	0.000000E+00	0.000000E+00	0.000000E+00	0.100000E+01	0.305979E+03	0.299438E+03	0.296072E+03	3.678890E+00	1.035500E-02	3.315729E+00	3.637413E-01	1.324720E+02	1.145730E-02	1.044600E+03
0.365000E-02	0.500000E-04	0.126759E+03	0.403116E+00	0.252685E+24	0.117498E-01	0.306916E+03	0.302680E+03	0.295702E+03	0.107065E+04	0.354905E+00	0.459599E-05	0.104958E+09	0.132606E+32	0.000000E+00	0.000000E+00	0.000000E+00	0.000000E+00	0.100000E+01	0.306916E+03	0.302680E+03	0.295702E+03	3.036966E+00	1.876000E-02	2.474552E+00	5.627360E-01	1.338360E+02	1.139830E-02	1.044480E+03