TITLE=" Box                                                                     /                                                                         "
VARIABLES="X",        "Y",      "Vx   ",      "Vy   ",      "Nden ",      "Rho  ",      "Ttrn ",      "Trot ",      "Tvib ",      "Press",      "Ma   ",      "Lambd",      "Relac",      "Coll ",      "frac1",      "Ttrn1",      "Trot1",      "Tvib1",      "frac2",      "Ttrn2",      "Trot2",      "Tvib2",      "rho_dif",      "Ma_dif,      "Pa_dif",      "T_dif",      "V_ref", ,      "Rho_ref",      "P_ref"
ZONE T="DSMC,BG", I=  200, J=   50, F=POINT
-0.395000E-02	0.500000E-04	0.802400E+03	0.251440E+02	0.128490E+25	0.597479E-01	0.100296E+03	0.840727E+02	0.232976E+03	0.177911E+04	0.393187E+01	0.683368E-06	0.384607E+09	0.247091E+33	0.000000E+00	0.000000E+00	0.000000E+00	0.000000E+00	0.100000E+01	0.100296E+03	0.840727E+02	0.232976E+03	1.747487E-01	1.913000E-02	7.747236E-01	9.492878E-01	8.025110E+02	5.985240E-02	1.765380E+03
-0.385000E-02	0.500000E-04	0.740863E+03	0.680310E+02	0.139118E+25	0.646900E-01	0.144345E+03	0.116287E+03	0.245694E+03	0.277227E+04	0.303737E+01	0.691304E-06	0.477119E+09	0.331880E+33	0.000000E+00	0.000000E+00	0.000000E+00	0.000000E+00	0.100000E+01	0.144345E+03	0.116287E+03	0.245694E+03	2.127893E-01	7.960000E-03	2.886274E-01	5.014446E-01	7.410810E+02	6.482780E-02	2.764280E+03
-0.375000E-02	0.500000E-04	0.711916E+03	0.898471E+02	0.138612E+25	0.644546E-01	0.160856E+03	0.130817E+03	0.250350E+03	0.307813E+04	0.277511E+01	0.712872E-06	0.530546E+09	0.367700E+33	0.000000E+00	0.000000E+00	0.000000E+00	0.000000E+00	0.100000E+01	0.160856E+03	0.130817E+03	0.250350E+03	6.462683E-01	4.750000E-03	7.937497E-01	1.472283E-01	7.113530E+02	6.487250E-02	3.102660E+03
-0.365000E-02	0.500000E-04	0.674852E+03	0.743755E+02	0.111281E+25	0.517458E-01	0.184635E+03	0.148401E+03	0.257313E+03	0.283652E+04	0.245082E+01	0.919093E-06	0.460282E+09	0.256104E+33	0.000000E+00	0.000000E+00	0.000000E+00	0.000000E+00	0.100000E+01	0.184635E+03	0.148401E+03	0.257313E+03	9.240949E-01	2.125000E-02	1.065252E-01	1.030549E+00	6.772360E+02	5.222620E-02	2.833500E+03
-0.355000E-02	0.500000E-04	0.627403E+03	0.530261E+02	0.861059E+24	0.400393E-01	0.211915E+03	0.170289E+03	0.264213E+03	0.251910E+04	0.212153E+01	0.122945E-05	0.357219E+09	0.153793E+33	0.000000E+00	0.000000E+00	0.000000E+00	0.000000E+00	0.100000E+01	0.211915E+03	0.170289E+03	0.264213E+03	7.935560E-01	1.975000E-02	1.111446E-02	7.826083E-01	6.309040E+02	4.035830E-02	2.519380E+03
-0.345000E-02	0.500000E-04	0.580387E+03	0.382778E+02	0.712998E+24	0.331544E-01	0.235351E+03	0.190504E+03	0.269702E+03	0.231661E+04	0.185969E+01	0.152421E-05	0.292688E+09	0.104343E+33	0.000000E+00	0.000000E+00	0.000000E+00	0.000000E+00	0.100000E+01	0.235351E+03	0.190504E+03	0.269702E+03	1.320162E+00	1.954000E-02	5.561606E-01	7.638976E-01	5.841240E+02	3.359500E-02	2.329530E+03
-0.335000E-02	0.500000E-04	0.535735E+03	0.307117E+02	0.618041E+24	0.287389E-01	0.253615E+03	0.208053E+03	0.274495E+03	0.216392E+04	0.165278E+01	0.179155E-05	0.251715E+09	0.777853E+32	0.000000E+00	0.000000E+00	0.000000E+00	0.000000E+00	0.100000E+01	0.253615E+03	0.208053E+03	0.274495E+03	1.064285E+00	1.504000E-02	6.315717E-01	4.330869E-01	5.394160E+02	2.904640E-02	2.177630E+03
-0.325000E-02	0.500000E-04	0.501685E+03	0.236966E+02	0.546723E+24	0.254226E-01	0.266605E+03	0.221885E+03	0.277525E+03	0.201226E+04	0.150876E+01	0.205070E-05	0.224207E+09	0.612896E+32	0.000000E+00	0.000000E+00	0.000000E+00	0.000000E+00	0.100000E+01	0.266605E+03	0.221885E+03	0.277525E+03	1.460390E+00	1.118000E-02	1.938040E+00	4.778414E-01	4.991370E+02	2.579660E-02	2.051640E+03
-0.315000E-02	0.500000E-04	0.467522E+03	0.185613E+02	0.498673E+24	0.231883E-01	0.276606E+03	0.235133E+03	0.280283E+03	0.190426E+04	0.137992E+01	0.226910E-05	0.203209E+09	0.506674E+32	0.000000E+00	0.000000E+00	0.000000E+00	0.000000E+00	0.100000E+01	0.276606E+03	0.235133E+03	0.280283E+03	1.458560E+00	9.920000E-03	2.073064E+00	6.145063E-01	4.655360E+02	2.352900E-02	1.944150E+03
-0.305000E-02	0.500000E-04	0.444332E+03	0.143953E+02	0.459346E+24	0.213596E-01	0.281198E+03	0.241396E+03	0.282201E+03	0.178321E+04	0.130038E+01	0.247352E-05	0.186429E+09	0.428178E+32	0.000000E+00	0.000000E+00	0.000000E+00	0.000000E+00	0.100000E+01	0.281198E+03	0.241396E+03	0.282201E+03	6.235299E-01	1.122000E-02	1.753216E+00	1.129792E+00	4.430050E+02	2.149320E-02	1.814750E+03
-0.295000E-02	0.500000E-04	0.418826E+03	0.117691E+02	0.437375E+24	0.203380E-01	0.288181E+03	0.249919E+03	0.283962E+03	0.174008E+04	0.121063E+01	0.261376E-05	0.177656E+09	0.388512E+32	0.000000E+00	0.000000E+00	0.000000E+00	0.000000E+00	0.100000E+01	0.288181E+03	0.249919E+03	0.283962E+03	1.815985E-01	1.900000E-04	2.585754E-02	2.072934E-01	4.193070E+02	2.030110E-02	1.740530E+03
-0.285000E-02	0.500000E-04	0.399187E+03	0.119283E+02	0.414145E+24	0.192577E-01	0.292048E+03	0.257402E+03	0.285252E+03	0.166977E+04	0.114626E+01	0.276958E-05	0.168181E+09	0.348256E+32	0.000000E+00	0.000000E+00	0.000000E+00	0.000000E+00	0.100000E+01	0.292048E+03	0.257402E+03	0.285252E+03	4.783531E-01	2.620000E-03	5.537005E-01	7.535847E-02	4.000010E+02	1.916580E-02	1.660550E+03
-0.275000E-02	0.500000E-04	0.374393E+03	0.116987E+02	0.401829E+24	0.186851E-01	0.296567E+03	0.263158E+03	0.286649E+03	0.164518E+04	0.106689E+01	0.286544E-05	0.163208E+09	0.327908E+32	0.000000E+00	0.000000E+00	0.000000E+00	0.000000E+00	0.100000E+01	0.296567E+03	0.263158E+03	0.286649E+03	6.162865E-01	7.620000E-03	7.939341E-01	1.781960E-01	3.767760E+02	1.857030E-02	1.632170E+03
-0.265000E-02	0.500000E-04	0.356351E+03	0.823299E+01	0.385526E+24	0.179269E-01	0.300004E+03	0.270123E+03	0.287651E+03	0.159672E+04	0.100942E+01	0.299524E-05	0.157167E+09	0.302959E+32	0.000000E+00	0.000000E+00	0.000000E+00	0.000000E+00	0.100000E+01	0.300004E+03	0.270123E+03	0.287651E+03	3.850786E-01	1.457000E-02	1.290274E+00	9.050653E-01	3.598560E+02	1.785800E-02	1.576250E+03
-0.255000E-02	0.500000E-04	0.337507E+03	0.912268E+01	0.375871E+24	0.174780E-01	0.301055E+03	0.272799E+03	0.288088E+03	0.156219E+04	0.954463E+00	0.307486E-05	0.153535E+09	0.288548E+32	0.000000E+00	0.000000E+00	0.000000E+00	0.000000E+00	0.100000E+01	0.301055E+03	0.272799E+03	0.288088E+03	1.573677E+00	3.182400E-02	2.096398E+00	5.231967E-01	3.478890E+02	1.720510E-02	1.529780E+03
-0.245000E-02	0.500000E-04	0.325665E+03	0.623248E+01	0.362441E+24	0.168535E-01	0.302076E+03	0.273616E+03	0.288231E+03	0.151148E+04	0.919248E+00	0.319150E-05	0.147840E+09	0.267916E+32	0.000000E+00	0.000000E+00	0.000000E+00	0.000000E+00	0.100000E+01	0.302076E+03	0.273616E+03	0.288231E+03	3.489032E-01	1.738200E-02	4.887932E-01	1.397976E-01	3.315850E+02	1.679480E-02	1.504110E+03
-0.235000E-02	0.500000E-04	0.315454E+03	0.614598E+01	0.353004E+24	0.164147E-01	0.302863E+03	0.276635E+03	0.289142E+03	0.147596E+04	0.889274E+00	0.327895E-05	0.144377E+09	0.254829E+32	0.000000E+00	0.000000E+00	0.000000E+00	0.000000E+00	0.100000E+01	0.302863E+03	0.276635E+03	0.289142E+03	1.042380E+00	7.890000E-04	7.741134E-01	2.684679E-01	3.152960E+02	1.658670E-02	1.487430E+03
-0.225000E-02	0.500000E-04	0.300205E+03	0.640764E+01	0.349481E+24	0.162509E-01	0.305937E+03	0.282069E+03	0.289591E+03	0.147606E+04	0.842057E+00	0.332038E-05	0.143261E+09	0.250335E+32	0.000000E+00	0.000000E+00	0.000000E+00	0.000000E+00	0.100000E+01	0.305937E+03	0.282069E+03	0.289591E+03	1.321837E+00	1.962600E-02	1.812961E+00	4.915019E-01	3.064670E+02	1.603750E-02	1.449540E+03
-0.215000E-02	0.500000E-04	0.293073E+03	0.318886E+01	0.337905E+24	0.157126E-01	0.305804E+03	0.280752E+03	0.289539E+03	0.142655E+04	0.822091E+00	0.343375E-05	0.138522E+09	0.234037E+32	0.000000E+00	0.000000E+00	0.000000E+00	0.000000E+00	0.100000E+01	0.305804E+03	0.280752E+03	0.289539E+03	3.155308E-01	7.123000E-03	2.716155E-01	5.875353E-01	2.964710E+02	1.566310E-02	1.430430E+03
-0.205000E-02	0.500000E-04	0.281935E+03	0.509598E+01	0.332898E+24	0.154798E-01	0.306792E+03	0.287072E+03	0.290509E+03	0.140995E+04	0.789658E+00	0.348821E-05	0.136028E+09	0.226417E+32	0.000000E+00	0.000000E+00	0.000000E+00	0.000000E+00	0.100000E+01	0.306792E+03	0.287072E+03	0.290509E+03	1.319387E+00	2.814300E-02	9.606545E-01	3.579075E-01	2.925430E+02	1.527690E-02	1.396470E+03
-0.195000E-02	0.500000E-04	0.274293E+03	0.428517E+01	0.322815E+24	0.150109E-01	0.309158E+03	0.287784E+03	0.290827E+03	0.137779E+04	0.765275E+00	0.360408E-05	0.133129E+09	0.214880E+32	0.000000E+00	0.000000E+00	0.000000E+00	0.000000E+00	0.100000E+01	0.309158E+03	0.287784E+03	0.290827E+03	1.793130E+00	1.029100E-02	1.593399E+00	1.994496E-01	2.776960E+02	1.528250E-02	1.399920E+03
-0.185000E-02	0.500000E-04	0.264792E+03	0.314903E+01	0.320232E+24	0.148908E-01	0.308363E+03	0.287914E+03	0.290851E+03	0.136325E+04	0.739683E+00	0.363081E-05	0.131852E+09	0.211116E+32	0.000000E+00	0.000000E+00	0.000000E+00	0.000000E+00	0.100000E+01	0.308363E+03	0.287914E+03	0.290851E+03	1.231106E+00	2.487800E-02	1.164266E+00	6.645800E-02	2.737890E+02	1.470860E-02	1.347470E+03
-0.175000E-02	0.500000E-04	0.259472E+03	0.222934E+01	0.313575E+24	0.145812E-01	0.306562E+03	0.288811E+03	0.291224E+03	0.132712E+04	0.726923E+00	0.370246E-05	0.128993E+09	0.202244E+32	0.000000E+00	0.000000E+00	0.000000E+00	0.000000E+00	0.100000E+01	0.306562E+03	0.288811E+03	0.291224E+03	1.321321E+00	2.516400E-02	4.432915E-01	8.784906E-01	2.696380E+02	1.438980E-02	1.321250E+03
-0.165000E-02	0.500000E-04	0.250175E+03	0.314701E+01	0.314025E+24	0.146022E-01	0.310787E+03	0.291745E+03	0.291157E+03	0.134734E+04	0.696125E+00	0.370983E-05	0.129333E+09	0.203070E+32	0.000000E+00	0.000000E+00	0.000000E+00	0.000000E+00	0.100000E+01	0.310787E+03	0.291745E+03	0.291157E+03	1.319409E+00	3.134700E-02	1.573130E+00	2.532265E-01	2.611120E+02	1.441080E-02	1.326310E+03
-0.155000E-02	0.500000E-04	0.245431E+03	0.494723E+01	0.307155E+24	0.142827E-01	0.309974E+03	0.292792E+03	0.291683E+03	0.131441E+04	0.683903E+00	0.379033E-05	0.126265E+09	0.193914E+32	0.000000E+00	0.000000E+00	0.000000E+00	0.000000E+00	0.100000E+01	0.309974E+03	0.292792E+03	0.291683E+03	8.691433E-01	3.103500E-02	1.848937E+00	9.800219E-01	2.553350E+02	1.415910E-02	1.290330E+03
-0.145000E-02	0.500000E-04	0.238279E+03	0.227045E+01	0.306618E+24	0.142577E-01	0.308681E+03	0.291279E+03	0.292041E+03	0.130664E+04	0.665260E+00	0.379300E-05	0.125760E+09	0.192802E+32	0.000000E+00	0.000000E+00	0.000000E+00	0.000000E+00	0.100000E+01	0.308681E+03	0.291279E+03	0.292041E+03	4.886469E-01	2.129300E-02	1.146094E+00	6.571976E-01	2.450630E+02	1.418820E-02	1.291750E+03
-0.135000E-02	0.500000E-04	0.237941E+03	0.110828E+01	0.297086E+24	0.138145E-01	0.310528E+03	0.291888E+03	0.292091E+03	0.127360E+04	0.662314E+00	0.392054E-05	0.122580E+09	0.182084E+32	0.000000E+00	0.000000E+00	0.000000E+00	0.000000E+00	0.100000E+01	0.310528E+03	0.291888E+03	0.292091E+03	1.195111E-01	2.168300E-02	1.145023E+00	1.025103E+00	2.444770E+02	1.379800E-02	1.259100E+03
-0.125000E-02	0.500000E-04	0.234479E+03	0.411720E+00	0.293715E+24	0.136578E-01	0.311589E+03	0.295669E+03	0.291970E+03	0.126345E+04	0.651559E+00	0.396891E-05	0.121281E+09	0.178111E+32	0.000000E+00	0.000000E+00	0.000000E+00	0.000000E+00	0.100000E+01	0.311589E+03	0.295669E+03	0.291970E+03	2.253601E+00	1.244700E-02	6.563533E-01	1.597438E+00	2.370550E+02	1.396910E-02	1.271770E+03
-0.115000E-02	0.500000E-04	0.230677E+03	0.225189E+01	0.293554E+24	0.136503E-01	0.310158E+03	0.296470E+03	0.292707E+03	0.125696E+04	0.642501E+00	0.396653E-05	0.121149E+09	0.177819E+32	0.000000E+00	0.000000E+00	0.000000E+00	0.000000E+00	0.100000E+01	0.310158E+03	0.296470E+03	0.292707E+03	6.709866E-01	7.359000E-03	6.865390E-01	1.357497E+00	2.317070E+02	1.374220E-02	1.248360E+03
-0.105000E-02	0.500000E-04	0.224356E+03	0.474685E+01	0.292569E+24	0.136044E-01	0.309121E+03	0.293187E+03	0.292513E+03	0.124855E+04	0.626053E+00	0.397656E-05	0.120378E+09	0.176094E+32	0.000000E+00	0.000000E+00	0.000000E+00	0.000000E+00	0.100000E+01	0.309121E+03	0.293187E+03	0.292513E+03	6.659660E-01	1.316100E-02	1.283260E+00	6.165408E-01	2.284010E+02	1.351410E-02	1.232630E+03
-0.950000E-03	0.500000E-04	0.217981E+03	0.627200E+00	0.291538E+24	0.135565E-01	0.307737E+03	0.293808E+03	0.292623E+03	0.123858E+04	0.609496E+00	0.398615E-05	0.120622E+09	0.175829E+32	0.000000E+00	0.000000E+00	0.000000E+00	0.000000E+00	0.100000E+01	0.307737E+03	0.293808E+03	0.292623E+03	1.061183E+00	1.761200E-02	7.715874E-01	2.897624E-01	2.246030E+02	1.341340E-02	1.229060E+03
-0.850000E-03	0.500000E-04	0.216278E+03	0.195293E+01	0.285988E+24	0.132984E-01	0.309027E+03	0.297503E+03	0.293290E+03	0.122009E+04	0.603494E+00	0.406775E-05	0.118107E+09	0.168887E+32	0.000000E+00	0.000000E+00	0.000000E+00	0.000000E+00	0.100000E+01	0.309027E+03	0.297503E+03	0.293290E+03	1.572854E-01	1.739800E-02	6.834247E-01	5.256037E-01	2.219380E+02	1.327750E-02	1.211780E+03
-0.750000E-03	0.500000E-04	0.211153E+03	0.134060E+01	0.284855E+24	0.132458E-01	0.309505E+03	0.295951E+03	0.293724E+03	0.121714E+04	0.588724E+00	0.408550E-05	0.117721E+09	0.167667E+32	0.000000E+00	0.000000E+00	0.000000E+00	0.000000E+00	0.100000E+01	0.309505E+03	0.295951E+03	0.293724E+03	2.740175E+00	1.485600E-02	2.423564E+00	3.168126E-01	2.161420E+02	1.361380E-02	1.247000E+03
-0.650000E-03	0.500000E-04	0.208664E+03	0.326037E+01	0.281556E+24	0.130923E-01	0.308187E+03	0.294412E+03	0.293913E+03	0.119792E+04	0.583087E+00	0.412897E-05	0.115701E+09	0.162882E+32	0.000000E+00	0.000000E+00	0.000000E+00	0.000000E+00	0.100000E+01	0.308187E+03	0.294412E+03	0.293913E+03	2.031505E+00	1.671000E-02	2.191233E+00	1.598400E-01	2.148070E+02	1.336100E-02	1.224460E+03
-0.550000E-03	0.500000E-04	0.203851E+03	0.302902E+00	0.281895E+24	0.131081E-01	0.308921E+03	0.294162E+03	0.294120E+03	0.120222E+04	0.568893E+00	0.412645E-05	0.116090E+09	0.163627E+32	0.000000E+00	0.000000E+00	0.000000E+00	0.000000E+00	0.100000E+01	0.308921E+03	0.294162E+03	0.294120E+03	2.209928E-01	1.874400E-02	7.037088E-01	4.830965E-01	2.110570E+02	1.313710E-02	1.210710E+03
-0.450000E-03	0.500000E-04	0.202315E+03	-0.861763E-01	0.282701E+24	0.131456E-01	0.305656E+03	0.293262E+03	0.293862E+03	0.119291E+04	0.567613E+00	0.410378E-05	0.116787E+09	0.165079E+32	0.000000E+00	0.000000E+00	0.000000E+00	0.000000E+00	0.100000E+01	0.305656E+03	0.293262E+03	0.293862E+03	5.399589E-02	1.195000E-03	1.234671E+00	1.179629E+00	2.030750E+02	1.315270E-02	1.207730E+03
-0.350000E-03	0.500000E-04	0.203390E+03	0.140355E+01	0.279381E+24	0.129912E-01	0.307000E+03	0.295580E+03	0.294351E+03	0.118409E+04	0.569393E+00	0.415710E-05	0.115226E+09	0.160960E+32	0.000000E+00	0.000000E+00	0.000000E+00	0.000000E+00	0.100000E+01	0.307000E+03	0.295580E+03	0.294351E+03	2.597433E-01	1.539900E-02	9.330554E-01	1.192843E+00	1.990370E+02	1.295750E-02	1.195190E+03
-0.250000E-03	0.500000E-04	0.198008E+03	0.203705E+01	0.281884E+24	0.131076E-01	0.306602E+03	0.295356E+03	0.294022E+03	0.119315E+04	0.554702E+00	0.411885E-05	0.116306E+09	0.163924E+32	0.000000E+00	0.000000E+00	0.000000E+00	0.000000E+00	0.100000E+01	0.306602E+03	0.295356E+03	0.294022E+03	9.243292E-01	2.248700E-02	7.414892E-01	1.666354E+00	1.915640E+02	1.298700E-02	1.202030E+03
-0.150000E-03	0.500000E-04	0.194617E+03	0.293557E+01	0.276454E+24	0.128551E-01	0.309957E+03	0.295672E+03	0.294130E+03	0.118297E+04	0.542275E+00	0.421119E-05	0.113733E+09	0.157210E+32	0.000000E+00	0.000000E+00	0.000000E+00	0.000000E+00	0.100000E+01	0.309957E+03	0.295672E+03	0.294130E+03	4.264193E-01	1.322100E-02	1.438886E+00	1.012661E+00	1.889120E+02	1.280040E-02	1.166070E+03
-0.499999E-04	0.500000E-04	0.191347E+03	-0.179120E+01	0.276850E+24	0.128735E-01	0.310169E+03	0.299641E+03	0.294207E+03	0.118547E+04	0.532946E+00	0.420590E-05	0.114699E+09	0.158771E+32	0.000000E+00	0.000000E+00	0.000000E+00	0.000000E+00	0.100000E+01	0.310169E+03	0.299641E+03	0.294207E+03	1.341127E+00	5.070000E-03	2.116695E+00	7.754773E-01	1.888020E+02	1.270200E-02	1.160640E+03
0.499999E-04	0.500000E-04	0.184747E+03	0.269004E+01	0.278124E+24	0.129328E-01	0.309445E+03	0.299620E+03	0.294062E+03	0.118815E+04	0.515196E+00	0.418417E-05	0.115141E+09	0.160118E+32	0.000000E+00	0.000000E+00	0.000000E+00	0.000000E+00	0.100000E+01	0.309445E+03	0.299620E+03	0.294062E+03	1.962185E+00	1.395000E-02	2.374362E+00	4.125541E-01	1.893760E+02	1.268150E-02	1.160270E+03
0.150000E-03	0.500000E-04	0.183650E+03	0.188677E+01	0.269503E+24	0.125319E-01	0.310269E+03	0.300080E+03	0.294578E+03	0.115439E+04	0.511430E+00	0.432090E-05	0.111757E+09	0.150594E+32	0.000000E+00	0.000000E+00	0.000000E+00	0.000000E+00	0.100000E+01	0.310269E+03	0.300080E+03	0.294578E+03	8.912899E-01	1.492900E-02	1.340362E+00	4.486804E-01	1.885960E+02	1.242070E-02	1.139020E+03
0.250000E-03	0.500000E-04	0.179858E+03	0.134122E+01	0.267935E+24	0.124590E-01	0.308941E+03	0.298565E+03	0.294510E+03	0.114276E+04	0.501932E+00	0.434153E-05	0.110506E+09	0.148041E+32	0.000000E+00	0.000000E+00	0.000000E+00	0.000000E+00	0.100000E+01	0.308941E+03	0.298565E+03	0.294510E+03	2.332936E-01	1.651100E-02	2.233932E-01	4.561410E-01	1.853450E+02	1.248810E-02	1.140210E+03
0.350000E-03	0.500000E-04	0.176890E+03	0.857643E+00	0.268253E+24	0.124738E-01	0.309061E+03	0.298829E+03	0.294022E+03	0.114456E+04	0.493545E+00	0.433680E-05	0.110902E+09	0.148749E+32	0.000000E+00	0.000000E+00	0.000000E+00	0.000000E+00	0.100000E+01	0.309061E+03	0.298829E+03	0.294022E+03	1.377940E-01	1.937900E-02	7.079460E-02	2.089147E-01	1.836250E+02	1.249100E-02	1.143750E+03
0.450000E-03	0.500000E-04	0.175420E+03	0.124924E+01	0.267051E+24	0.124179E-01	0.309785E+03	0.299111E+03	0.293981E+03	0.114210E+04	0.488879E+00	0.435886E-05	0.111022E+09	0.148242E+32	0.000000E+00	0.000000E+00	0.000000E+00	0.000000E+00	0.100000E+01	0.309785E+03	0.299111E+03	0.293981E+03	9.905557E-01	1.764800E-02	6.429851E-01	3.473789E-01	1.820640E+02	1.229550E-02	1.134780E+03
0.550000E-03	0.500000E-04	0.176319E+03	-0.122062E+01	0.260110E+24	0.120951E-01	0.311003E+03	0.300844E+03	0.293808E+03	0.111679E+04	0.490421E+00	0.447958E-05	0.107413E+09	0.139697E+32	0.000000E+00	0.000000E+00	0.000000E+00	0.000000E+00	0.100000E+01	0.311003E+03	0.300844E+03	0.293808E+03	3.257329E+00	9.300000E-04	2.299563E+00	9.579333E-01	1.758120E+02	1.249560E-02	1.142770E+03
0.650000E-03	0.500000E-04	0.175510E+03	0.711745E+00	0.257857E+24	0.119904E-01	0.309263E+03	0.299573E+03	0.294348E+03	0.110092E+04	0.489534E+00	0.451237E-05	0.106884E+09	0.137804E+32	0.000000E+00	0.000000E+00	0.000000E+00	0.000000E+00	0.100000E+01	0.309263E+03	0.299573E+03	0.294348E+03	3.866113E+00	3.236000E-03	2.685712E+00	1.181015E+00	1.756260E+02	1.246310E-02	1.130890E+03
0.750000E-03	0.500000E-04	0.175684E+03	0.134132E+01	0.256883E+24	0.119451E-01	0.310000E+03	0.301025E+03	0.294604E+03	0.109937E+04	0.489446E+00	0.453219E-05	0.106488E+09	0.136775E+32	0.000000E+00	0.000000E+00	0.000000E+00	0.000000E+00	0.100000E+01	0.310000E+03	0.301025E+03	0.294604E+03	2.578278E+00	3.911000E-03	1.473549E+00	1.106083E+00	1.760930E+02	1.225710E-02	1.115690E+03
0.850000E-03	0.500000E-04	0.173894E+03	-0.199154E+01	0.255989E+24	0.119035E-01	0.310476E+03	0.302229E+03	0.294384E+03	0.109723E+04	0.484106E+00	0.454975E-05	0.105942E+09	0.135600E+32	0.000000E+00	0.000000E+00	0.000000E+00	0.000000E+00	0.100000E+01	0.310476E+03	0.302229E+03	0.294384E+03	2.997203E+00	8.530000E-04	2.934705E+00	6.250423E-02	1.735450E+02	1.226570E-02	1.129910E+03
0.950000E-03	0.500000E-04	0.171604E+03	0.229067E+00	0.261375E+24	0.121540E-01	0.307686E+03	0.299297E+03	0.294432E+03	0.111025E+04	0.479860E+00	0.444596E-05	0.108129E+09	0.141311E+32	0.000000E+00	0.000000E+00	0.000000E+00	0.000000E+00	0.100000E+01	0.307686E+03	0.299297E+03	0.294432E+03	3.646458E-01	1.504000E-03	1.085720E+00	7.205346E-01	1.727530E+02	1.219840E-02	1.122370E+03
0.105000E-02	0.500000E-04	0.172062E+03	0.244748E+01	0.260066E+24	0.120931E-01	0.307096E+03	0.298334E+03	0.294394E+03	0.110257E+04	0.481653E+00	0.446620E-05	0.107662E+09	0.139996E+32	0.000000E+00	0.000000E+00	0.000000E+00	0.000000E+00	0.100000E+01	0.307096E+03	0.298334E+03	0.294394E+03	4.216641E-01	1.031800E-02	1.784278E+00	1.361895E+00	1.695430E+02	1.214420E-02	1.122420E+03
0.115000E-02	0.500000E-04	0.169144E+03	-0.154552E+00	0.258137E+24	0.120034E-01	0.306503E+03	0.300651E+03	0.294615E+03	0.109228E+04	0.473895E+00	0.449740E-05	0.106205E+09	0.137078E+32	0.000000E+00	0.000000E+00	0.000000E+00	0.000000E+00	0.100000E+01	0.306503E+03	0.300651E+03	0.294615E+03	1.075273E-01	7.281000E-03	2.116915E+00	2.223911E+00	1.684000E+02	1.199050E-02	1.115650E+03
0.125000E-02	0.500000E-04	0.170509E+03	0.280116E+00	0.256476E+24	0.119261E-01	0.309233E+03	0.300844E+03	0.294263E+03	0.109492E+04	0.475603E+00	0.453656E-05	0.106294E+09	0.136309E+32	0.000000E+00	0.000000E+00	0.000000E+00	0.000000E+00	0.100000E+01	0.309233E+03	0.300844E+03	0.294263E+03	2.913472E+00	2.574600E-02	3.089650E+00	1.764102E-01	1.614210E+02	1.227870E-02	1.129280E+03
0.135000E-02	0.500000E-04	0.166993E+03	0.886387E+00	0.260925E+24	0.121330E-01	0.306473E+03	0.300088E+03	0.294701E+03	0.110397E+04	0.467896E+00	0.444923E-05	0.108223E+09	0.141191E+32	0.000000E+00	0.000000E+00	0.000000E+00	0.000000E+00	0.100000E+01	0.306473E+03	0.300088E+03	0.294701E+03	5.154406E-01	2.438200E-02	5.348125E-01	2.022812E-02	1.582970E+02	1.219570E-02	1.109890E+03
0.145000E-02	0.500000E-04	0.165493E+03	-0.169121E+01	0.260331E+24	0.121054E-01	0.307764E+03	0.300231E+03	0.294663E+03	0.110609E+04	0.462736E+00	0.446408E-05	0.108229E+09	0.140877E+32	0.000000E+00	0.000000E+00	0.000000E+00	0.000000E+00	0.100000E+01	0.307764E+03	0.300231E+03	0.294663E+03	6.439129E-01	2.946000E-02	1.229188E+00	5.847735E-01	1.554110E+02	1.218360E-02	1.119770E+03
0.155000E-02	0.500000E-04	0.161860E+03	0.256220E+01	0.260440E+24	0.121105E-01	0.309675E+03	0.302035E+03	0.294986E+03	0.111343E+04	0.451214E+00	0.446912E-05	0.107988E+09	0.140622E+32	0.000000E+00	0.000000E+00	0.000000E+00	0.000000E+00	0.100000E+01	0.309675E+03	0.302035E+03	0.294986E+03	6.194891E-02	1.821600E-02	3.770240E-01	3.150187E-01	1.550970E+02	1.210300E-02	1.109240E+03
0.165000E-02	0.500000E-04	0.157906E+03	0.202869E+01	0.257005E+24	0.119507E-01	0.307937E+03	0.300192E+03	0.295372E+03	0.109258E+04	0.441411E+00	0.452248E-05	0.106393E+09	0.136717E+32	0.000000E+00	0.000000E+00	0.000000E+00	0.000000E+00	0.100000E+01	0.307937E+03	0.300192E+03	0.295372E+03	4.541698E-01	1.445300E-02	6.862131E-02	3.849088E-01	1.524530E+02	1.200510E-02	1.093330E+03
0.175000E-02	0.500000E-04	0.156338E+03	0.100740E+01	0.254478E+24	0.118332E-01	0.308185E+03	0.300454E+03	0.295714E+03	0.108271E+04	0.436828E+00	0.456830E-05	0.105415E+09	0.134129E+32	0.000000E+00	0.000000E+00	0.000000E+00	0.000000E+00	0.100000E+01	0.308185E+03	0.300454E+03	0.295714E+03	1.358888E+00	1.517900E-02	4.129223E-01	9.457691E-01	1.501930E+02	1.199510E-02	1.087190E+03
0.185000E-02	0.500000E-04	0.156760E+03	-0.672771E+00	0.257084E+24	0.119544E-01	0.305819E+03	0.298029E+03	0.295718E+03	0.108539E+04	0.439690E+00	0.451330E-05	0.106337E+09	0.136687E+32	0.000000E+00	0.000000E+00	0.000000E+00	0.000000E+00	0.100000E+01	0.305819E+03	0.298029E+03	0.295718E+03	3.939351E-01	1.873700E-02	1.840960E-01	5.777539E-01	1.505140E+02	1.190740E-02	1.087390E+03
0.195000E-02	0.500000E-04	0.155721E+03	0.140041E+01	0.254559E+24	0.118370E-01	0.308380E+03	0.300997E+03	0.295900E+03	0.108373E+04	0.434972E+00	0.456758E-05	0.104942E+09	0.133570E+32	0.000000E+00	0.000000E+00	0.000000E+00	0.000000E+00	0.100000E+01	0.308380E+03	0.300997E+03	0.295900E+03	1.037088E+00	2.195800E-02	6.300849E-01	4.081208E-01	1.475620E+02	1.196040E-02	1.090580E+03
0.205000E-02	0.500000E-04	0.153368E+03	0.226734E+00	0.253712E+24	0.117976E-01	0.307734E+03	0.299734E+03	0.295768E+03	0.107787E+04	0.428834E+00	0.458042E-05	0.105084E+09	0.133306E+32	0.000000E+00	0.000000E+00	0.000000E+00	0.000000E+00	0.100000E+01	0.307734E+03	0.299734E+03	0.295768E+03	6.454992E-01	1.501100E-02	6.310029E-01	1.276727E+00	1.470410E+02	1.187400E-02	1.071090E+03
0.215000E-02	0.500000E-04	0.153615E+03	-0.186692E+01	0.254488E+24	0.118337E-01	0.306016E+03	0.297122E+03	0.295634E+03	0.107513E+04	0.430758E+00	0.456007E-05	0.105060E+09	0.133683E+32	0.000000E+00	0.000000E+00	0.000000E+00	0.000000E+00	0.100000E+01	0.306016E+03	0.297122E+03	0.295634E+03	1.093392E+00	2.017300E-02	5.398687E-01	5.534593E-01	1.460260E+02	1.196380E-02	1.080950E+03
0.225000E-02	0.500000E-04	0.152096E+03	0.482382E+00	0.256065E+24	0.119070E-01	0.307752E+03	0.300609E+03	0.295357E+03	0.108793E+04	0.425264E+00	0.453841E-05	0.106365E+09	0.136181E+32	0.000000E+00	0.000000E+00	0.000000E+00	0.000000E+00	0.100000E+01	0.307752E+03	0.300609E+03	0.295357E+03	3.398728E-01	1.516200E-02	7.019486E-01	3.616578E-01	1.464080E+02	1.186660E-02	1.080320E+03
0.235000E-02	0.500000E-04	0.150895E+03	0.702254E+00	0.252711E+24	0.117511E-01	0.306903E+03	0.298389E+03	0.295151E+03	0.107072E+04	0.422493E+00	0.459546E-05	0.103947E+09	0.131343E+32	0.000000E+00	0.000000E+00	0.000000E+00	0.000000E+00	0.100000E+01	0.306903E+03	0.298389E+03	0.295151E+03	5.092903E-01	1.065800E-02	6.989460E-01	1.894568E-01	1.472280E+02	1.181110E-02	1.078230E+03
0.245000E-02	0.500000E-04	0.150582E+03	0.103650E+01	0.250136E+24	0.116313E-01	0.306546E+03	0.300092E+03	0.294797E+03	0.105857E+04	0.421867E+00	0.464142E-05	0.103552E+09	0.129510E+32	0.000000E+00	0.000000E+00	0.000000E+00	0.000000E+00	0.100000E+01	0.306546E+03	0.300092E+03	0.294797E+03	1.531525E-01	1.769800E-02	1.231775E+00	1.384914E+00	1.452620E+02	1.161350E-02	1.071690E+03
0.255000E-02	0.500000E-04	0.147874E+03	0.459105E+00	0.255071E+24	0.118608E-01	0.306750E+03	0.299560E+03	0.294804E+03	0.108018E+04	0.414136E+00	0.455238E-05	0.105878E+09	0.135032E+32	0.000000E+00	0.000000E+00	0.000000E+00	0.000000E+00	0.100000E+01	0.306750E+03	0.299560E+03	0.294804E+03	2.606720E+00	1.931000E-03	1.195798E+00	1.411644E+00	1.482120E+02	1.155560E-02	1.067340E+03
0.265000E-02	0.500000E-04	0.146385E+03	0.186980E+01	0.253583E+24	0.117916E-01	0.305048E+03	0.299475E+03	0.295467E+03	0.106792E+04	0.411138E+00	0.457272E-05	0.104369E+09	0.132332E+32	0.000000E+00	0.000000E+00	0.000000E+00	0.000000E+00	0.100000E+01	0.305048E+03	0.299475E+03	0.295467E+03	1.468522E+00	6.180000E-04	1.506468E-01	1.619957E+00	1.473650E+02	1.161970E-02	1.069530E+03
0.275000E-02	0.500000E-04	0.144686E+03	-0.119151E+01	0.249768E+24	0.116142E-01	0.306440E+03	0.300426E+03	0.294968E+03	0.105665E+04	0.405423E+00	0.464785E-05	0.103100E+09	0.128756E+32	0.000000E+00	0.000000E+00	0.000000E+00	0.000000E+00	0.100000E+01	0.306440E+03	0.300426E+03	0.294968E+03	1.177780E+00	2.572000E-03	1.630473E+00	4.528946E-01	1.440900E+02	1.175180E-02	1.074020E+03
0.285000E-02	0.500000E-04	0.144594E+03	0.562903E+00	0.251766E+24	0.117071E-01	0.309755E+03	0.302346E+03	0.295021E+03	0.107663E+04	0.402983E+00	0.462338E-05	0.104132E+09	0.131084E+32	0.000000E+00	0.000000E+00	0.000000E+00	0.000000E+00	0.100000E+01	0.309755E+03	0.302346E+03	0.295021E+03	7.946366E-01	7.861000E-03	6.457534E-01	1.440136E+00	1.407480E+02	1.180050E-02	1.069700E+03
0.295000E-02	0.500000E-04	0.142515E+03	-0.617895E+00	0.251686E+24	0.117034E-01	0.309005E+03	0.302348E+03	0.295136E+03	0.107368E+04	0.397669E+00	0.462205E-05	0.105035E+09	0.132179E+32	0.000000E+00	0.000000E+00	0.000000E+00	0.000000E+00	0.100000E+01	0.309005E+03	0.302348E+03	0.295136E+03	2.272747E+00	5.902000E-03	1.379504E+00	8.940293E-01	1.410300E+02	1.144040E-02	1.058970E+03
0.305000E-02	0.500000E-04	0.141880E+03	0.399545E+01	0.246128E+24	0.114450E-01	0.309831E+03	0.304329E+03	0.295525E+03	0.105277E+04	0.395522E+00	0.472958E-05	0.102819E+09	0.126533E+32	0.000000E+00	0.000000E+00	0.000000E+00	0.000000E+00	0.100000E+01	0.309831E+03	0.304329E+03	0.295525E+03	1.260679E+00	1.216100E-02	5.777500E-01	6.843182E-01	1.371020E+02	1.159020E-02	1.058870E+03
0.315000E-02	0.500000E-04	0.137981E+03	-0.572127E+00	0.245147E+24	0.113993E-01	0.311463E+03	0.304621E+03	0.296075E+03	0.105410E+04	0.383497E+00	0.475476E-05	0.101881E+09	0.124879E+32	0.000000E+00	0.000000E+00	0.000000E+00	0.000000E+00	0.100000E+01	0.311463E+03	0.304621E+03	0.296075E+03	1.923545E+00	2.898000E-03	1.704353E+00	2.195284E-01	1.367760E+02	1.162070E-02	1.072220E+03
0.325000E-02	0.500000E-04	0.136962E+03	0.163834E+01	0.245234E+24	0.114034E-01	0.308327E+03	0.303794E+03	0.295744E+03	0.104386E+04	0.382619E+00	0.474105E-05	0.101461E+09	0.124408E+32	0.000000E+00	0.000000E+00	0.000000E+00	0.000000E+00	0.100000E+01	0.308327E+03	0.303794E+03	0.295744E+03	1.161290E+00	7.860000E-04	1.809396E+00	6.478539E-01	1.371280E+02	1.153660E-02	1.062920E+03
0.335000E-02	0.500000E-04	0.134974E+03	0.260995E+01	0.244791E+24	0.113828E-01	0.308229E+03	0.302997E+03	0.295592E+03	0.104164E+04	0.377169E+00	0.474925E-05	0.101341E+09	0.124037E+32	0.000000E+00	0.000000E+00	0.000000E+00	0.000000E+00	0.100000E+01	0.308229E+03	0.302997E+03	0.295592E+03	5.929936E-01	6.743000E-03	2.224321E+00	1.630506E+00	1.385380E+02	1.145050E-02	1.065070E+03
0.345000E-02	0.500000E-04	0.137900E+03	-0.428273E+01	0.247847E+24	0.115249E-01	0.307263E+03	0.300947E+03	0.295705E+03	0.105134E+04	0.386065E+00	0.468702E-05	0.102608E+09	0.127156E+32	0.000000E+00	0.000000E+00	0.000000E+00	0.000000E+00	0.100000E+01	0.307263E+03	0.300947E+03	0.295705E+03	8.592143E-01	7.682000E-03	2.422538E-01	1.101421E+00	1.359460E+02	1.142630E-02	1.053890E+03
0.355000E-02	0.500000E-04	0.137738E+03	0.138684E+01	0.248535E+24	0.115569E-01	0.307095E+03	0.303119E+03	0.295967E+03	0.105368E+04	0.385549E+00	0.467340E-05	0.102864E+09	0.127827E+32	0.000000E+00	0.000000E+00	0.000000E+00	0.000000E+00	0.100000E+01	0.307095E+03	0.303119E+03	0.295967E+03	8.655526E-01	1.475700E-02	8.654708E-01	3.256327E-04	1.324720E+02	1.145730E-02	1.044600E+03
0.365000E-02	0.500000E-04	0.137034E+03	-0.105358E+00	0.247000E+24	0.114855E-01	0.309045E+03	0.305054E+03	0.296221E+03	0.105382E+04	0.382349E+00	0.470990E-05	0.101596E+09	0.125471E+32	0.000000E+00	0.000000E+00	0.000000E+00	0.000000E+00	0.100000E+01	0.309045E+03	0.305054E+03	0.296221E+03	7.621112E-01	8.684000E-03	8.902445E-01	1.285428E-01	1.338360E+02	1.139830E-02	1.044480E+03