TITLE=" Box                                                                     /                                                                         "
VARIABLES="X",        "Y",      "Vx   ",      "Vy   ",      "Nden ",      "Rho  ",      "Ttrn ",      "Trot ",      "Tvib ",      "Press",      "Ma   ",      "Lambd",      "Relac",      "Coll ",      "frac1",      "Ttrn1",      "Trot1",      "Tvib1",      "frac2",      "Ttrn2",      "Trot2",      "Tvib2"
ZONE T="DSMC,BG", I=  200, J=   50, F=POINT
 -0.395000E-02  0.500000E-04  0.803345E+03  0.248208E+02  0.128909E+25  0.599429E-01  0.991706E+02  0.832999E+02  0.232747E+03  0.176489E+04  0.395873E+01  0.679225E-06  0.383732E+09  0.247333E+33  0.000000E+00  0.000000E+00  0.000000E+00  0.000000E+00  0.100000E+01  0.991706E+02  0.832999E+02  0.232747E+03
 -0.385000E-02  0.500000E-04  0.742630E+03  0.674001E+02  0.139406E+25  0.648236E-01  0.143245E+03  0.115251E+03  0.245492E+03  0.275682E+04  0.305600E+01  0.688561E-06  0.478438E+09  0.333485E+33  0.000000E+00  0.000000E+00  0.000000E+00  0.000000E+00  0.100000E+01  0.143245E+03  0.115251E+03  0.245492E+03
 -0.375000E-02  0.500000E-04  0.713738E+03  0.895881E+02  0.139116E+25  0.646888E-01  0.159669E+03  0.129968E+03  0.250400E+03  0.306652E+04  0.279230E+01  0.708977E-06  0.531030E+09  0.369373E+33  0.000000E+00  0.000000E+00  0.000000E+00  0.000000E+00  0.100000E+01  0.159669E+03  0.129968E+03  0.250400E+03
 -0.365000E-02  0.500000E-04  0.676066E+03  0.749978E+02  0.112555E+25  0.523382E-01  0.184658E+03  0.148603E+03  0.257022E+03  0.286934E+04  0.245527E+01  0.908717E-06  0.465244E+09  0.261828E+33  0.000000E+00  0.000000E+00  0.000000E+00  0.000000E+00  0.100000E+01  0.184658E+03  0.148603E+03  0.257022E+03
 -0.355000E-02  0.500000E-04  0.630470E+03  0.534134E+02  0.865535E+24  0.402474E-01  0.210727E+03  0.169693E+03  0.263857E+03  0.251799E+04  0.213794E+01  0.122137E-05  0.358294E+09  0.155058E+33  0.000000E+00  0.000000E+00  0.000000E+00  0.000000E+00  0.100000E+01  0.210727E+03  0.169693E+03  0.263857E+03
 -0.345000E-02  0.500000E-04  0.587033E+03  0.374784E+02  0.710430E+24  0.330350E-01  0.232273E+03  0.187690E+03  0.269422E+03  0.227808E+04  0.189315E+01  0.152469E-05  0.289414E+09  0.102804E+33  0.000000E+00  0.000000E+00  0.000000E+00  0.000000E+00  0.100000E+01  0.232273E+03  0.187690E+03  0.269422E+03
 -0.335000E-02  0.500000E-04  0.543230E+03  0.314182E+02  0.623605E+24  0.289976E-01  0.251353E+03  0.206600E+03  0.273582E+03  0.216393E+04  0.168347E+01  0.177159E-05  0.255861E+09  0.797781E+32  0.000000E+00  0.000000E+00  0.000000E+00  0.000000E+00  0.100000E+01  0.251353E+03  0.206600E+03  0.273582E+03
 -0.325000E-02  0.500000E-04  0.502766E+03  0.236899E+02  0.557138E+24  0.259069E-01  0.265695E+03  0.221809E+03  0.277155E+03  0.204360E+04  0.151459E+01  0.201065E-05  0.228454E+09  0.636401E+32  0.000000E+00  0.000000E+00  0.000000E+00  0.000000E+00  0.100000E+01  0.265695E+03  0.221809E+03  0.277155E+03
 -0.315000E-02  0.500000E-04  0.468829E+03  0.183003E+02  0.501508E+24  0.233201E-01  0.275151E+03  0.233562E+03  0.280172E+03  0.190502E+04  0.138739E+01  0.225329E-05  0.203354E+09  0.509918E+32  0.000000E+00  0.000000E+00  0.000000E+00  0.000000E+00  0.100000E+01  0.275151E+03  0.233562E+03  0.280172E+03
 -0.305000E-02  0.500000E-04  0.442766E+03  0.155275E+02  0.464976E+24  0.216214E-01  0.281501E+03  0.242766E+03  0.282172E+03  0.180700E+04  0.129521E+01  0.244423E-05  0.188919E+09  0.439214E+32  0.000000E+00  0.000000E+00  0.000000E+00  0.000000E+00  0.100000E+01  0.281501E+03  0.242766E+03  0.282172E+03
 -0.295000E-02  0.500000E-04  0.416674E+03  0.142450E+02  0.442061E+24  0.205558E-01  0.287898E+03  0.250522E+03  0.283391E+03  0.175699E+04  0.120523E+01  0.258542E-05  0.180608E+09  0.399199E+32  0.000000E+00  0.000000E+00  0.000000E+00  0.000000E+00  0.100000E+01  0.287898E+03  0.250522E+03  0.283391E+03
 -0.285000E-02  0.500000E-04  0.393685E+03  0.107229E+02  0.423361E+24  0.196863E-01  0.294928E+03  0.257167E+03  0.284876E+03  0.172375E+04  0.112484E+01  0.271595E-05  0.173495E+09  0.367254E+32  0.000000E+00  0.000000E+00  0.000000E+00  0.000000E+00  0.100000E+01  0.294928E+03  0.257167E+03  0.284876E+03
 -0.275000E-02  0.500000E-04  0.377417E+03  0.998086E+01  0.402232E+24  0.187038E-01  0.295338E+03  0.263080E+03  0.285604E+03  0.164000E+04  0.107759E+01  0.285960E-05  0.163385E+09  0.328593E+32  0.000000E+00  0.000000E+00  0.000000E+00  0.000000E+00  0.100000E+01  0.295338E+03  0.263080E+03  0.285604E+03
 -0.265000E-02  0.500000E-04  0.357662E+03  0.892772E+01  0.387888E+24  0.180368E-01  0.299823E+03  0.269106E+03  0.287128E+03  0.160554E+04  0.101348E+01  0.297655E-05  0.158424E+09  0.307255E+32  0.000000E+00  0.000000E+00  0.000000E+00  0.000000E+00  0.100000E+01  0.299823E+03  0.269106E+03  0.287128E+03
 -0.255000E-02  0.500000E-04  0.341217E+03  0.747584E+01  0.375472E+24  0.174595E-01  0.303076E+03  0.274269E+03  0.287766E+03  0.157101E+04  0.961610E+00  0.308328E-05  0.153833E+09  0.288800E+32  0.000000E+00  0.000000E+00  0.000000E+00  0.000000E+00  0.100000E+01  0.303076E+03  0.274269E+03  0.287766E+03
 -0.245000E-02  0.500000E-04  0.326686E+03  0.662192E+01  0.365768E+24  0.170082E-01  0.302807E+03  0.277858E+03  0.289014E+03  0.152905E+04  0.921035E+00  0.316438E-05  0.149485E+09  0.273385E+32  0.000000E+00  0.000000E+00  0.000000E+00  0.000000E+00  0.100000E+01  0.302807E+03  0.277858E+03  0.289014E+03
 -0.235000E-02  0.500000E-04  0.317136E+03  0.468751E+01  0.352662E+24  0.163988E-01  0.304670E+03  0.279186E+03  0.288859E+03  0.148333E+04  0.891289E+00  0.328702E-05  0.144872E+09  0.255454E+32  0.000000E+00  0.000000E+00  0.000000E+00  0.000000E+00  0.100000E+01  0.304670E+03  0.279186E+03  0.288859E+03
 -0.225000E-02  0.500000E-04  0.312110E+03  0.514336E+01  0.337584E+24  0.156977E-01  0.305289E+03  0.282185E+03  0.289472E+03  0.142280E+04  0.876296E+00  0.343557E-05  0.137640E+09  0.232326E+32  0.000000E+00  0.000000E+00  0.000000E+00  0.000000E+00  0.100000E+01  0.305289E+03  0.282185E+03  0.289472E+03
 -0.215000E-02  0.500000E-04  0.302409E+03  0.473046E+01  0.332527E+24  0.154625E-01  0.306264E+03  0.283653E+03  0.289601E+03  0.140596E+04  0.847696E+00  0.349060E-05  0.137029E+09  0.227829E+32  0.000000E+00  0.000000E+00  0.000000E+00  0.000000E+00  0.100000E+01  0.306264E+03  0.283653E+03  0.289601E+03
 -0.205000E-02  0.500000E-04  0.292579E+03  0.547299E+01  0.327846E+24  0.152448E-01  0.308118E+03  0.285693E+03  0.290232E+03  0.139455E+04  0.817715E+00  0.354579E-05  0.133693E+09  0.219153E+32  0.000000E+00  0.000000E+00  0.000000E+00  0.000000E+00  0.100000E+01  0.308118E+03  0.285693E+03  0.290232E+03
 -0.195000E-02  0.500000E-04  0.278282E+03  0.269954E+01  0.327992E+24  0.152516E-01  0.310323E+03  0.286783E+03  0.290273E+03  0.140516E+04  0.774888E+00  0.355053E-05  0.134624E+09  0.220779E+32  0.000000E+00  0.000000E+00  0.000000E+00  0.000000E+00  0.100000E+01  0.310323E+03  0.286783E+03  0.290273E+03
 -0.185000E-02  0.500000E-04  0.269873E+03  0.724710E+01  0.324157E+24  0.150733E-01  0.310293E+03  0.289367E+03  0.290892E+03  0.138860E+04  0.751743E+00  0.359245E-05  0.133635E+09  0.216594E+32  0.000000E+00  0.000000E+00  0.000000E+00  0.000000E+00  0.100000E+01  0.310293E+03  0.289367E+03  0.290892E+03
 -0.175000E-02  0.500000E-04  0.265132E+03  0.793188E+00  0.309351E+24  0.143848E-01  0.311779E+03  0.289806E+03  0.291723E+03  0.133152E+04  0.736516E+00  0.376888E-05  0.126929E+09  0.196328E+32  0.000000E+00  0.000000E+00  0.000000E+00  0.000000E+00  0.100000E+01  0.311779E+03  0.289806E+03  0.291723E+03
 -0.165000E-02  0.500000E-04  0.259309E+03  0.135223E+01  0.310407E+24  0.144339E-01  0.311953E+03  0.292243E+03  0.291854E+03  0.133681E+04  0.720143E+00  0.375659E-05  0.128507E+09  0.199447E+32  0.000000E+00  0.000000E+00  0.000000E+00  0.000000E+00  0.100000E+01  0.311953E+03  0.292243E+03  0.291854E+03
 -0.155000E-02  0.500000E-04  0.251687E+03  0.566361E+01  0.307136E+24  0.142818E-01  0.312198E+03  0.295685E+03  0.292001E+03  0.132376E+04  0.698869E+00  0.379735E-05  0.126849E+09  0.194799E+32  0.000000E+00  0.000000E+00  0.000000E+00  0.000000E+00  0.100000E+01  0.312198E+03  0.295685E+03  0.292001E+03
 -0.145000E-02  0.500000E-04  0.245516E+03  0.296343E+01  0.303114E+24  0.140948E-01  0.308896E+03  0.291515E+03  0.292131E+03  0.129261E+04  0.685247E+00  0.383751E-05  0.125896E+09  0.190805E+32  0.000000E+00  0.000000E+00  0.000000E+00  0.000000E+00  0.100000E+01  0.308896E+03  0.291515E+03  0.292130E+03
 -0.135000E-02  0.500000E-04  0.241452E+03  0.580205E-01  0.298130E+24  0.138630E-01  0.307403E+03  0.289218E+03  0.292263E+03  0.126521E+04  0.675488E+00  0.389695E-05  0.123445E+09  0.184013E+32  0.000000E+00  0.000000E+00  0.000000E+00  0.000000E+00  0.100000E+01  0.307403E+03  0.289218E+03  0.292263E+03
 -0.125000E-02  0.500000E-04  0.242880E+03  0.921887E+00  0.294699E+24  0.137035E-01  0.304655E+03  0.288976E+03  0.292574E+03  0.123947E+04  0.682546E+00  0.393348E-05  0.121329E+09  0.178778E+32  0.000000E+00  0.000000E+00  0.000000E+00  0.000000E+00  0.100000E+01  0.304655E+03  0.288976E+03  0.292574E+03
 -0.115000E-02  0.500000E-04  0.234549E+03  0.520438E+01  0.296661E+24  0.137947E-01  0.307612E+03  0.293333E+03  0.292581E+03  0.125983E+04  0.656114E+00  0.391691E-05  0.122544E+09  0.181771E+32  0.000000E+00  0.000000E+00  0.000000E+00  0.000000E+00  0.100000E+01  0.307612E+03  0.293333E+03  0.292581E+03
 -0.105000E-02  0.500000E-04  0.231752E+03  0.194180E+01  0.290329E+24  0.135003E-01  0.308554E+03  0.292945E+03  0.292779E+03  0.123672E+04  0.647162E+00  0.400539E-05  0.119437E+09  0.173381E+32  0.000000E+00  0.000000E+00  0.000000E+00  0.000000E+00  0.100000E+01  0.308554E+03  0.292945E+03  0.292779E+03
 -0.950000E-03  0.500000E-04  0.223692E+03  0.185279E+01  0.291081E+24  0.135353E-01  0.309427E+03  0.294384E+03  0.292970E+03  0.124343E+04  0.623774E+00  0.399787E-05  0.119989E+09  0.174632E+32  0.000000E+00  0.000000E+00  0.000000E+00  0.000000E+00  0.100000E+01  0.309427E+03  0.294384E+03  0.292970E+03
 -0.850000E-03  0.500000E-04  0.216862E+03  0.517425E+01  0.291284E+24  0.135447E-01  0.309239E+03  0.294168E+03  0.293675E+03  0.124354E+04  0.605062E+00  0.399448E-05  0.121447E+09  0.176878E+32  0.000000E+00  0.000000E+00  0.000000E+00  0.000000E+00  0.100000E+01  0.309239E+03  0.294168E+03  0.293675E+03
 -0.750000E-03  0.500000E-04  0.215934E+03 -0.129789E+01  0.288996E+24  0.134383E-01  0.303658E+03  0.292559E+03  0.293715E+03  0.121150E+04  0.607823E+00  0.400781E-05  0.118790E+09  0.171649E+32  0.000000E+00  0.000000E+00  0.000000E+00  0.000000E+00  0.100000E+01  0.303658E+03  0.292559E+03  0.293715E+03
 -0.650000E-03  0.500000E-04  0.210251E+03  0.421684E+01  0.291687E+24  0.135635E-01  0.307497E+03  0.295134E+03  0.293595E+03  0.123825E+04  0.588229E+00  0.398332E-05  0.119864E+09  0.174814E+32  0.000000E+00  0.000000E+00  0.000000E+00  0.000000E+00  0.100000E+01  0.307497E+03  0.295134E+03  0.293595E+03
 -0.550000E-03  0.500000E-04  0.199040E+03  0.455529E+00  0.291769E+24  0.135672E-01  0.308374E+03  0.296768E+03  0.293387E+03  0.124212E+04  0.555960E+00  0.398505E-05  0.120189E+09  0.175336E+32  0.000000E+00  0.000000E+00  0.000000E+00  0.000000E+00  0.100000E+01  0.308374E+03  0.296768E+03  0.293387E+03
 -0.450000E-03  0.500000E-04  0.195981E+03  0.268502E+01  0.283054E+24  0.131620E-01  0.308700E+03  0.294943E+03  0.293763E+03  0.120630E+04  0.547175E+00  0.410882E-05  0.116528E+09  0.164919E+32  0.000000E+00  0.000000E+00  0.000000E+00  0.000000E+00  0.100000E+01  0.308700E+03  0.294943E+03  0.293763E+03
 -0.350000E-03  0.500000E-04  0.193265E+03  0.295399E+01  0.278011E+24  0.129275E-01  0.309981E+03  0.300867E+03  0.293720E+03  0.118972E+04  0.538490E+00  0.418769E-05  0.115103E+09  0.159999E+32  0.000000E+00  0.000000E+00  0.000000E+00  0.000000E+00  0.100000E+01  0.309981E+03  0.300867E+03  0.293720E+03
 -0.250000E-03  0.500000E-04  0.185477E+03  0.184705E+01  0.276439E+24  0.128544E-01  0.308578E+03  0.299511E+03  0.294500E+03  0.117764E+04  0.517930E+00  0.420672E-05  0.114557E+09  0.158340E+32  0.000000E+00  0.000000E+00  0.000000E+00  0.000000E+00  0.100000E+01  0.308578E+03  0.299511E+03  0.294500E+03
 -0.150000E-03  0.500000E-04  0.188332E+03 -0.136743E+01  0.270683E+24  0.125867E-01  0.312379E+03  0.301908E+03  0.294197E+03  0.116733E+04  0.522680E+00  0.430936E-05  0.112664E+09  0.152481E+32  0.000000E+00  0.000000E+00  0.000000E+00  0.000000E+00  0.100000E+01  0.312380E+03  0.301908E+03  0.294197E+03
 -0.499999E-04  0.500000E-04  0.190395E+03  0.190112E+01  0.271450E+24  0.126224E-01  0.310774E+03  0.298110E+03  0.293721E+03  0.116462E+04  0.529779E+00  0.429165E-05  0.112654E+09  0.152900E+32  0.000000E+00  0.000000E+00  0.000000E+00  0.000000E+00  0.100000E+01  0.310774E+03  0.298110E+03  0.293721E+03
  0.499999E-04  0.500000E-04  0.185942E+03 -0.139423E+00  0.276530E+24  0.128586E-01  0.306595E+03  0.297979E+03  0.293953E+03  0.117046E+04  0.520877E+00  0.419858E-05  0.114124E+09  0.157793E+32  0.000000E+00  0.000000E+00  0.000000E+00  0.000000E+00  0.100000E+01  0.306595E+03  0.297979E+03  0.293953E+03
  0.150000E-03  0.500000E-04  0.184070E+03  0.269024E+01  0.275088E+24  0.127916E-01  0.311827E+03  0.301575E+03  0.294740E+03  0.118423E+04  0.511345E+00  0.423847E-05  0.113776E+09  0.156492E+32  0.000000E+00  0.000000E+00  0.000000E+00  0.000000E+00  0.100000E+01  0.311827E+03  0.301575E+03  0.294740E+03
  0.250000E-03  0.500000E-04  0.178277E+03  0.319516E+01  0.273278E+24  0.127074E-01  0.314080E+03  0.303755E+03  0.293988E+03  0.118493E+04  0.493497E+00  0.427424E-05  0.113432E+09  0.154992E+32  0.000000E+00  0.000000E+00  0.000000E+00  0.000000E+00  0.100000E+01  0.314080E+03  0.303755E+03  0.293988E+03
  0.350000E-03  0.500000E-04  0.174243E+03  0.864530E+00  0.274916E+24  0.127836E-01  0.310728E+03  0.302077E+03  0.293822E+03  0.117932E+04  0.484854E+00  0.423738E-05  0.114403E+09  0.157257E+32  0.000000E+00  0.000000E+00  0.000000E+00  0.000000E+00  0.100000E+01  0.310728E+03  0.302077E+03  0.293822E+03
  0.450000E-03  0.500000E-04  0.168598E+03  0.327135E+01  0.277407E+24  0.128994E-01  0.311499E+03  0.300736E+03  0.294595E+03  0.119295E+04  0.468648E+00  0.420194E-05  0.115143E+09  0.159707E+32  0.000000E+00  0.000000E+00  0.000000E+00  0.000000E+00  0.100000E+01  0.311499E+03  0.300736E+03  0.294595E+03
  0.550000E-03  0.500000E-04  0.166296E+03  0.186547E+01  0.272227E+24  0.126586E-01  0.310759E+03  0.300693E+03  0.295090E+03  0.116790E+04  0.462742E+00  0.427935E-05  0.112819E+09  0.153562E+32  0.000000E+00  0.000000E+00  0.000000E+00  0.000000E+00  0.100000E+01  0.310759E+03  0.300693E+03  0.295090E+03
  0.650000E-03  0.500000E-04  0.166429E+03 -0.155251E+01  0.269783E+24  0.125449E-01  0.312826E+03  0.298821E+03  0.294982E+03  0.116511E+04  0.461570E+00  0.432527E-05  0.112249E+09  0.151415E+32  0.000000E+00  0.000000E+00  0.000000E+00  0.000000E+00  0.100000E+01  0.312826E+03  0.298821E+03  0.294982E+03
  0.750000E-03  0.500000E-04  0.166156E+03  0.289983E+01  0.269645E+24  0.125385E-01  0.310640E+03  0.300056E+03  0.294832E+03  0.115637E+04  0.462481E+00  0.431992E-05  0.111465E+09  0.150279E+32  0.000000E+00  0.000000E+00  0.000000E+00  0.000000E+00  0.100000E+01  0.310640E+03  0.300056E+03  0.294832E+03
  0.850000E-03  0.500000E-04  0.164104E+03 -0.225365E+01  0.269981E+24  0.125541E-01  0.309425E+03  0.296268E+03  0.294768E+03  0.115329E+04  0.457639E+00  0.431031E-05  0.111450E+09  0.150447E+32  0.000000E+00  0.000000E+00  0.000000E+00  0.000000E+00  0.100000E+01  0.309425E+03  0.296268E+03  0.294768E+03
  0.950000E-03  0.500000E-04  0.164121E+03  0.228343E-01  0.269974E+24  0.125538E-01  0.307352E+03  0.297123E+03  0.294440E+03  0.114553E+04  0.459185E+00  0.430319E-05  0.110887E+09  0.149683E+32  0.000000E+00  0.000000E+00  0.000000E+00  0.000000E+00  0.100000E+01  0.307352E+03  0.297123E+03  0.294440E+03
  0.105000E-02  0.500000E-04  0.162429E+03  0.491833E+01  0.268213E+24  0.124719E-01  0.304785E+03  0.297641E+03  0.294588E+03  0.112856E+04  0.456569E+00  0.432236E-05  0.110583E+09  0.148300E+32  0.000000E+00  0.000000E+00  0.000000E+00  0.000000E+00  0.100000E+01  0.304785E+03  0.297641E+03  0.294588E+03
  0.115000E-02  0.500000E-04  0.154124E+03 -0.294420E-02  0.271439E+24  0.126219E-01  0.306544E+03  0.300650E+03  0.294622E+03  0.114872E+04  0.431781E+00  0.427715E-05  0.112084E+09  0.152120E+32  0.000000E+00  0.000000E+00  0.000000E+00  0.000000E+00  0.100000E+01  0.306544E+03  0.300650E+03  0.294622E+03
  0.125000E-02  0.500000E-04  0.155537E+03 -0.394335E-01  0.269342E+24  0.125244E-01  0.307804E+03  0.300327E+03  0.294360E+03  0.114453E+04  0.434849E+00  0.431486E-05  0.111291E+09  0.149877E+32  0.000000E+00  0.000000E+00  0.000000E+00  0.000000E+00  0.100000E+01  0.307804E+03  0.300327E+03  0.294360E+03
  0.135000E-02  0.500000E-04  0.154072E+03  0.137282E+01  0.267918E+24  0.124582E-01  0.307874E+03  0.302976E+03  0.294166E+03  0.113874E+04  0.430721E+00  0.433805E-05  0.111283E+09  0.149074E+32  0.000000E+00  0.000000E+00  0.000000E+00  0.000000E+00  0.100000E+01  0.307874E+03  0.302976E+03  0.294166E+03
  0.145000E-02  0.500000E-04  0.148104E+03  0.271645E+01  0.269787E+24  0.125451E-01  0.308327E+03  0.303173E+03  0.295130E+03  0.114837E+04  0.413785E+00  0.430957E-05  0.111375E+09  0.150237E+32  0.000000E+00  0.000000E+00  0.000000E+00  0.000000E+00  0.100000E+01  0.308327E+03  0.303173E+03  0.295130E+03
  0.155000E-02  0.500000E-04  0.141650E+03  0.109342E+01  0.274632E+24  0.127704E-01  0.303060E+03  0.296204E+03  0.296123E+03  0.114902E+04  0.399124E+00  0.421535E-05  0.112806E+09  0.154901E+32  0.000000E+00  0.000000E+00  0.000000E+00  0.000000E+00  0.100000E+01  0.303060E+03  0.296204E+03  0.296123E+03
  0.165000E-02  0.500000E-04  0.138634E+03  0.375919E+01  0.269434E+24  0.125287E-01  0.302222E+03  0.296787E+03  0.295592E+03  0.112416E+04  0.391298E+00  0.429370E-05  0.110742E+09  0.149189E+32  0.000000E+00  0.000000E+00  0.000000E+00  0.000000E+00  0.100000E+01  0.302222E+03  0.296787E+03  0.295592E+03
  0.175000E-02  0.500000E-04  0.143926E+03 -0.397031E+01  0.261000E+24  0.121365E-01  0.309522E+03  0.302751E+03  0.296371E+03  0.111527E+04  0.401420E+00  0.445897E-05  0.108126E+09  0.141105E+32  0.000000E+00  0.000000E+00  0.000000E+00  0.000000E+00  0.100000E+01  0.309522E+03  0.302751E+03  0.296371E+03
  0.185000E-02  0.500000E-04  0.143326E+03  0.113510E+01  0.263589E+24  0.122569E-01  0.309742E+03  0.302345E+03  0.296112E+03  0.112714E+04  0.399465E+00  0.441597E-05  0.109144E+09  0.143846E+32  0.000000E+00  0.000000E+00  0.000000E+00  0.000000E+00  0.100000E+01  0.309742E+03  0.302345E+03  0.296112E+03
  0.195000E-02  0.500000E-04  0.142369E+03  0.887687E-01  0.258502E+24  0.120203E-01  0.306016E+03  0.300822E+03  0.295955E+03  0.109209E+04  0.399196E+00  0.448926E-05  0.106720E+09  0.137937E+32  0.000000E+00  0.000000E+00  0.000000E+00  0.000000E+00  0.100000E+01  0.306016E+03  0.300822E+03  0.295955E+03
  0.205000E-02  0.500000E-04  0.141962E+03  0.102014E+00  0.261598E+24  0.121643E-01  0.311281E+03  0.302313E+03  0.295716E+03  0.112418E+04  0.394673E+00  0.445509E-05  0.108205E+09  0.141531E+32  0.000000E+00  0.000000E+00  0.000000E+00  0.000000E+00  0.100000E+01  0.311281E+03  0.302313E+03  0.295716E+03
  0.215000E-02  0.500000E-04  0.138844E+03  0.567334E-01  0.266809E+24  0.124066E-01  0.305208E+03  0.300373E+03  0.296344E+03  0.112420E+04  0.389824E+00  0.434662E-05  0.109827E+09  0.146515E+32  0.000000E+00  0.000000E+00  0.000000E+00  0.000000E+00  0.100000E+01  0.305208E+03  0.300373E+03  0.296344E+03
  0.225000E-02  0.500000E-04  0.135837E+03  0.984002E-01  0.271005E+24  0.126017E-01  0.301257E+03  0.294848E+03  0.295913E+03  0.112710E+04  0.383874E+00  0.426541E-05  0.111142E+09  0.150600E+32  0.000000E+00  0.000000E+00  0.000000E+00  0.000000E+00  0.100000E+01  0.301257E+03  0.294848E+03  0.295913E+03
  0.235000E-02  0.500000E-04  0.135938E+03  0.689839E+00  0.268264E+24  0.124743E-01  0.304367E+03  0.300593E+03  0.295413E+03  0.112722E+04  0.382200E+00  0.432006E-05  0.110354E+09  0.148020E+32  0.000000E+00  0.000000E+00  0.000000E+00  0.000000E+00  0.100000E+01  0.304367E+03  0.300593E+03  0.295413E+03
  0.245000E-02  0.500000E-04  0.135036E+03  0.254933E+01  0.257778E+24  0.119867E-01  0.306653E+03  0.298849E+03  0.295311E+03  0.109130E+04  0.378308E+00  0.450421E-05  0.106617E+09  0.137418E+32  0.000000E+00  0.000000E+00  0.000000E+00  0.000000E+00  0.100000E+01  0.306653E+03  0.298849E+03  0.295311E+03
  0.255000E-02  0.500000E-04  0.132400E+03 -0.422207E+00  0.255195E+24  0.118665E-01  0.306160E+03  0.298776E+03  0.295668E+03  0.107862E+04  0.371157E+00  0.454798E-05  0.104972E+09  0.133941E+32  0.000000E+00  0.000000E+00  0.000000E+00  0.000000E+00  0.100000E+01  0.306160E+03  0.298776E+03  0.295668E+03
  0.265000E-02  0.500000E-04  0.131427E+03  0.198372E+01  0.260071E+24  0.120933E-01  0.303834E+03  0.298047E+03  0.296077E+03  0.109088E+04  0.369877E+00  0.445421E-05  0.107718E+09  0.140072E+32  0.000000E+00  0.000000E+00  0.000000E+00  0.000000E+00  0.100000E+01  0.303834E+03  0.298047E+03  0.296077E+03
  0.275000E-02  0.500000E-04  0.131273E+03  0.334357E+01  0.258298E+24  0.120109E-01  0.305789E+03  0.299847E+03  0.295480E+03  0.109042E+04  0.368338E+00  0.449197E-05  0.106411E+09  0.137429E+32  0.000000E+00  0.000000E+00  0.000000E+00  0.000000E+00  0.100000E+01  0.305789E+03  0.299847E+03  0.295480E+03
  0.285000E-02  0.500000E-04  0.128949E+03 -0.300428E+01  0.255020E+24  0.118584E-01  0.305109E+03  0.297613E+03  0.295403E+03  0.107418E+04  0.362201E+00  0.454719E-05  0.105064E+09  0.133967E+32  0.000000E+00  0.000000E+00  0.000000E+00  0.000000E+00  0.100000E+01  0.305109E+03  0.297613E+03  0.295403E+03
  0.295000E-02  0.500000E-04  0.129230E+03 -0.122438E+01  0.252874E+24  0.117586E-01  0.307636E+03  0.298215E+03  0.295394E+03  0.107397E+04  0.361414E+00  0.459523E-05  0.105325E+09  0.133170E+32  0.000000E+00  0.000000E+00  0.000000E+00  0.000000E+00  0.100000E+01  0.307636E+03  0.298215E+03  0.295394E+03
  0.305000E-02  0.500000E-04  0.127613E+03  0.117585E+01  0.260215E+24  0.121000E-01  0.298083E+03  0.295595E+03  0.295759E+03  0.107083E+04  0.362564E+00  0.443052E-05  0.106752E+09  0.138892E+32  0.000000E+00  0.000000E+00  0.000000E+00  0.000000E+00  0.100000E+01  0.298083E+03  0.295595E+03  0.295759E+03
  0.315000E-02  0.500000E-04  0.129345E+03 -0.221320E-01  0.254712E+24  0.118441E-01  0.309385E+03  0.304247E+03  0.295938E+03  0.108792E+04  0.360697E+00  0.456856E-05  0.105890E+09  0.134857E+32  0.000000E+00  0.000000E+00  0.000000E+00  0.000000E+00  0.100000E+01  0.309385E+03  0.304247E+03  0.295938E+03
  0.325000E-02  0.500000E-04  0.124956E+03  0.153999E+01  0.254311E+24  0.118255E-01  0.306088E+03  0.300442E+03  0.295793E+03  0.107463E+04  0.350353E+00  0.456351E-05  0.104706E+09  0.133139E+32  0.000000E+00  0.000000E+00  0.000000E+00  0.000000E+00  0.100000E+01  0.306088E+03  0.300442E+03  0.295793E+03
  0.335000E-02  0.500000E-04  0.125477E+03  0.217802E+00  0.252088E+24  0.117221E-01  0.310354E+03  0.305149E+03  0.296154E+03  0.108009E+04  0.349364E+00  0.461971E-05  0.104867E+09  0.132179E+32  0.000000E+00  0.000000E+00  0.000000E+00  0.000000E+00  0.100000E+01  0.310354E+03  0.305149E+03  0.296154E+03
  0.345000E-02  0.500000E-04  0.124645E+03 -0.719966E+00  0.256205E+24  0.119135E-01  0.307038E+03  0.299742E+03  0.295818E+03  0.108599E+04  0.348921E+00  0.453329E-05  0.106529E+09  0.136466E+32  0.000000E+00  0.000000E+00  0.000000E+00  0.000000E+00  0.100000E+01  0.307038E+03  0.299742E+03  0.295818E+03
  0.355000E-02  0.500000E-04  0.121640E+03 -0.408340E+00  0.261631E+24  0.121658E-01  0.301292E+03  0.298954E+03  0.296107E+03  0.108824E+04  0.343737E+00  0.441835E-05  0.107861E+09  0.141100E+32  0.000000E+00  0.000000E+00  0.000000E+00  0.000000E+00  0.100000E+01  0.301292E+03  0.298954E+03  0.296107E+03
  0.365000E-02  0.500000E-04  0.121986E+03  0.731547E+00  0.256289E+24  0.119174E-01  0.302495E+03  0.298315E+03  0.296445E+03  0.107028E+04  0.344033E+00  0.451495E-05  0.105348E+09  0.134997E+32  0.000000E+00  0.000000E+00  0.000000E+00  0.000000E+00  0.100000E+01  0.302495E+03  0.298315E+03  0.296445E+03
  0.375000E-02  0.500000E-04  0.116125E+03  0.123792E+01  0.262232E+24  0.121938E-01  0.297154E+03  0.293836E+03  0.296630E+03  0.107576E+04  0.330445E+00  0.439302E-05  0.107223E+09  0.140586E+32  0.000000E+00  0.000000E+00  0.000000E+00  0.000000E+00  0.100000E+01  0.297154E+03  0.293836E+03  0.296630E+03
  0.385000E-02  0.500000E-04  0.115061E+03  0.163030E+01  0.254525E+24  0.118354E-01  0.301079E+03  0.297493E+03  0.297418E+03  0.105794E+04  0.325290E+00  0.454090E-05  0.104981E+09  0.133601E+32  0.000000E+00  0.000000E+00  0.000000E+00  0.000000E+00  0.100000E+01  0.301079E+03  0.297493E+03  0.297418E+03
  0.395000E-02  0.500000E-04  0.113891E+03 -0.477476E+00  0.249895E+24  0.116201E-01  0.302843E+03  0.299782E+03  0.296422E+03  0.104478E+04  0.321015E+00  0.463180E-05  0.103454E+09  0.129263E+32  0.000000E+00  0.000000E+00  0.000000E+00  0.000000E+00  0.100000E+01  0.302843E+03  0.299782E+03  0.296422E+03
  0.405000E-02  0.500000E-04  0.117933E+03 -0.400069E-01  0.247621E+24  0.115144E-01  0.309580E+03  0.304795E+03  0.296040E+03  0.105830E+04  0.328767E+00  0.470011E-05  0.102805E+09  0.127283E+32  0.000000E+00  0.000000E+00  0.000000E+00  0.000000E+00  0.100000E+01  0.309580E+03  0.304795E+03  0.296040E+03
  0.415000E-02  0.500000E-04  0.119084E+03  0.168281E+00  0.248692E+24  0.115642E-01  0.305514E+03  0.300755E+03  0.296130E+03  0.104892E+04  0.334178E+00  0.466443E-05  0.102160E+09  0.127032E+32  0.000000E+00  0.000000E+00  0.000000E+00  0.000000E+00  0.100000E+01  0.305514E+03  0.300755E+03  0.296130E+03
  0.425000E-02  0.500000E-04  0.117885E+03 -0.692419E+00  0.252156E+24  0.117253E-01  0.299455E+03  0.294679E+03  0.296155E+03  0.104244E+04  0.334150E+00  0.457738E-05  0.103030E+09  0.129898E+32  0.000000E+00  0.000000E+00  0.000000E+00  0.000000E+00  0.100000E+01  0.299455E+03  0.294679E+03  0.296155E+03
  0.435000E-02  0.500000E-04  0.119978E+03 -0.113293E+01  0.250234E+24  0.116359E-01  0.303824E+03  0.294201E+03  0.295695E+03  0.104959E+04  0.337639E+00  0.462926E-05  0.103126E+09  0.129029E+32  0.000000E+00  0.000000E+00  0.000000E+00  0.000000E+00  0.100000E+01  0.303824E+03  0.294201E+03  0.295695E+03
  0.445000E-02  0.500000E-04  0.118474E+03  0.387896E+01  0.252565E+24  0.117443E-01  0.300197E+03  0.292986E+03  0.295974E+03  0.104672E+04  0.335577E+00  0.457278E-05  0.103793E+09  0.131073E+32  0.000000E+00  0.000000E+00  0.000000E+00  0.000000E+00  0.100000E+01  0.300197E+03  0.292986E+03  0.295974E+03
  0.455000E-02  0.500000E-04  0.119586E+03 -0.258603E+01  0.251529E+24  0.116961E-01  0.298708E+03  0.293405E+03  0.295830E+03  0.103725E+04  0.339467E+00  0.458593E-05  0.102940E+09  0.129461E+32  0.000000E+00  0.000000E+00  0.000000E+00  0.000000E+00  0.100000E+01  0.298708E+03  0.293405E+03  0.295830E+03
  0.465000E-02  0.500000E-04  0.122060E+03 -0.254771E+01  0.254971E+24  0.118562E-01  0.298944E+03  0.290398E+03  0.295688E+03  0.105228E+04  0.346351E+00  0.452490E-05  0.104437E+09  0.133142E+32  0.000000E+00  0.000000E+00  0.000000E+00  0.000000E+00  0.100000E+01  0.298944E+03  0.290398E+03  0.295687E+03
  0.475000E-02  0.500000E-04  0.118495E+03  0.188220E+01  0.251924E+24  0.117144E-01  0.301492E+03  0.295624E+03  0.296468E+03  0.104856E+04  0.334780E+00  0.458937E-05  0.103673E+09  0.130588E+32  0.000000E+00  0.000000E+00  0.000000E+00  0.000000E+00  0.100000E+01  0.301492E+03  0.295624E+03  0.296468E+03
  0.485000E-02  0.500000E-04  0.117619E+03  0.443224E+00  0.250604E+24  0.116531E-01  0.303604E+03  0.297867E+03  0.295555E+03  0.105038E+04  0.331106E+00  0.462159E-05  0.103257E+09  0.129383E+32  0.000000E+00  0.000000E+00  0.000000E+00  0.000000E+00  0.100000E+01  0.303604E+03  0.297867E+03  0.295555E+03
  0.495000E-02  0.500000E-04  0.115222E+03  0.344843E+01  0.251556E+24  0.116974E-01  0.305035E+03  0.299020E+03  0.295801E+03  0.105934E+04  0.323740E+00  0.460952E-05  0.103920E+09  0.130709E+32  0.000000E+00  0.000000E+00  0.000000E+00  0.000000E+00  0.100000E+01  0.305035E+03  0.299020E+03  0.295801E+03
  0.505000E-02  0.500000E-04  0.111117E+03  0.233381E+01  0.251165E+24  0.116792E-01  0.300664E+03  0.296089E+03  0.296067E+03  0.104253E+04  0.314395E+00  0.460006E-05  0.103464E+09  0.129933E+32  0.000000E+00  0.000000E+00  0.000000E+00  0.000000E+00  0.100000E+01  0.300664E+03  0.296089E+03  0.296067E+03
  0.515000E-02  0.500000E-04  0.111444E+03  0.770309E+00  0.249549E+24  0.116040E-01  0.301466E+03  0.293391E+03  0.296064E+03  0.103859E+04  0.314839E+00  0.463294E-05  0.103088E+09  0.128627E+32  0.000000E+00  0.000000E+00  0.000000E+00  0.000000E+00  0.100000E+01  0.301466E+03  0.293391E+03  0.296064E+03
  0.525000E-02  0.500000E-04  0.110858E+03  0.902382E+00  0.250561E+24  0.116511E-01  0.303686E+03  0.299761E+03  0.296600E+03  0.105048E+04  0.312039E+00  0.462269E-05  0.103306E+09  0.129422E+32  0.000000E+00  0.000000E+00  0.000000E+00  0.000000E+00  0.100000E+01  0.303686E+03  0.299761E+03  0.296600E+03
  0.535000E-02  0.500000E-04  0.108570E+03 -0.269589E+00  0.252238E+24  0.117291E-01  0.301756E+03  0.298065E+03  0.296162E+03  0.105079E+04  0.306566E+00  0.458465E-05  0.104151E+09  0.131354E+32  0.000000E+00  0.000000E+00  0.000000E+00  0.000000E+00  0.100000E+01  0.301756E+03  0.298065E+03  0.296162E+03
  0.545000E-02  0.500000E-04  0.115578E+03 -0.243684E+01  0.243508E+24  0.113231E-01  0.306388E+03  0.302008E+03  0.295528E+03  0.102999E+04  0.323950E+00  0.476713E-05  0.101149E+09  0.123153E+32  0.000000E+00  0.000000E+00  0.000000E+00  0.000000E+00  0.100000E+01  0.306388E+03  0.302008E+03  0.295528E+03