TITLE=" Box                                                                     /                                                                         "
VARIABLES="X",        "Y",      "Vx   ",      "Vy   ",      "Nden ",      "Rho  ",      "Ttrn ",      "Trot ",      "Tvib ",      "Press",      "Ma   ",      "Lambd",      "Relac",      "Coll ",      "frac1",      "Ttrn1",      "Trot1",      "Tvib1",      "frac2",      "Ttrn2",      "Trot2",      "Tvib2"
ZONE T="DSMC,BG", I=  200, J=   50, F=POINT
 -0.395000E-02  0.500000E-04  0.803057E+03  0.240342E+02  0.128442E+25  0.597255E-01  0.996536E+02  0.839574E+02  0.232719E+03  0.176705E+04  0.394759E+01  0.682527E-06  0.384372E+09  0.246847E+33  0.000000E+00  0.000000E+00  0.000000E+00  0.000000E+00  0.100000E+01  0.996536E+02  0.839574E+02  0.232719E+03
 -0.385000E-02  0.500000E-04  0.743206E+03  0.663852E+02  0.138751E+25  0.645194E-01  0.143637E+03  0.115836E+03  0.245318E+03  0.275140E+04  0.305379E+01  0.692281E-06  0.475513E+09  0.329890E+33  0.000000E+00  0.000000E+00  0.000000E+00  0.000000E+00  0.100000E+01  0.143637E+03  0.115836E+03  0.245318E+03
 -0.375000E-02  0.500000E-04  0.714768E+03  0.888800E+02  0.138564E+25  0.644324E-01  0.159716E+03  0.130619E+03  0.250010E+03  0.305527E+04  0.279551E+01  0.711850E-06  0.525528E+09  0.364097E+33  0.000000E+00  0.000000E+00  0.000000E+00  0.000000E+00  0.100000E+01  0.159716E+03  0.130619E+03  0.250010E+03
 -0.365000E-02  0.500000E-04  0.677108E+03  0.760120E+02  0.112507E+25  0.523157E-01  0.183880E+03  0.148438E+03  0.257227E+03  0.285603E+04  0.246461E+01  0.908151E-06  0.461554E+09  0.259640E+33  0.000000E+00  0.000000E+00  0.000000E+00  0.000000E+00  0.100000E+01  0.183880E+03  0.148438E+03  0.257227E+03
 -0.355000E-02  0.500000E-04  0.632532E+03  0.541033E+02  0.865435E+24  0.402427E-01  0.209287E+03  0.169267E+03  0.264046E+03  0.250050E+04  0.215245E+01  0.121942E-05  0.358936E+09  0.155318E+33  0.000000E+00  0.000000E+00  0.000000E+00  0.000000E+00  0.100000E+01  0.209287E+03  0.169267E+03  0.264046E+03
 -0.345000E-02  0.500000E-04  0.582652E+03  0.388090E+02  0.715172E+24  0.332555E-01  0.234942E+03  0.189786E+03  0.269929E+03  0.231964E+04  0.186865E+01  0.151891E-05  0.294247E+09  0.105218E+33  0.000000E+00  0.000000E+00  0.000000E+00  0.000000E+00  0.100000E+01  0.234942E+03  0.189786E+03  0.269929E+03
 -0.335000E-02  0.500000E-04  0.532316E+03  0.332621E+02  0.627128E+24  0.291615E-01  0.257768E+03  0.210951E+03  0.274283E+03  0.223170E+04  0.162945E+01  0.177278E-05  0.255650E+09  0.801627E+32  0.000000E+00  0.000000E+00  0.000000E+00  0.000000E+00  0.100000E+01  0.257768E+03  0.210951E+03  0.274283E+03
 -0.325000E-02  0.500000E-04  0.496621E+03  0.256548E+02  0.548351E+24  0.254983E-01  0.269307E+03  0.224882E+03  0.277979E+03  0.203871E+04  0.148635E+01  0.204978E-05  0.224555E+09  0.615674E+32  0.000000E+00  0.000000E+00  0.000000E+00  0.000000E+00  0.100000E+01  0.269307E+03  0.224882E+03  0.277979E+03
 -0.315000E-02  0.500000E-04  0.466539E+03  0.178655E+02  0.498040E+24  0.231589E-01  0.279295E+03  0.236306E+03  0.280395E+03  0.192033E+04  0.137029E+01  0.227748E-05  0.204456E+09  0.509136E+32  0.000000E+00  0.000000E+00  0.000000E+00  0.000000E+00  0.100000E+01  0.279295E+03  0.236306E+03  0.280395E+03
 -0.305000E-02  0.500000E-04  0.437786E+03  0.145973E+02  0.462403E+24  0.215017E-01  0.286011E+03  0.245307E+03  0.282193E+03  0.182580E+04  0.127043E+01  0.246762E-05  0.187850E+09  0.434312E+32  0.000000E+00  0.000000E+00  0.000000E+00  0.000000E+00  0.100000E+01  0.286011E+03  0.245307E+03  0.282193E+03
 -0.295000E-02  0.500000E-04  0.412967E+03  0.125457E+02  0.434690E+24  0.202131E-01  0.289676E+03  0.252129E+03  0.283711E+03  0.173836E+04  0.119069E+01  0.263330E-05  0.176065E+09  0.382668E+32  0.000000E+00  0.000000E+00  0.000000E+00  0.000000E+00  0.100000E+01  0.289676E+03  0.252129E+03  0.283711E+03
 -0.285000E-02  0.500000E-04  0.395744E+03  0.109543E+02  0.409941E+24  0.190622E-01  0.293078E+03  0.257332E+03  0.284775E+03  0.165864E+04  0.113430E+01  0.280045E-05  0.166749E+09  0.341786E+32  0.000000E+00  0.000000E+00  0.000000E+00  0.000000E+00  0.100000E+01  0.293078E+03  0.257332E+03  0.284775E+03
 -0.275000E-02  0.500000E-04  0.370124E+03  0.121472E+02  0.398174E+24  0.185151E-01  0.299214E+03  0.265573E+03  0.285998E+03  0.164477E+04  0.105010E+01  0.289818E-05  0.162274E+09  0.323068E+32  0.000000E+00  0.000000E+00  0.000000E+00  0.000000E+00  0.100000E+01  0.299214E+03  0.265573E+03  0.285998E+03
 -0.265000E-02  0.500000E-04  0.356996E+03  0.878802E+01  0.376414E+24  0.175032E-01  0.301384E+03  0.271396E+03  0.287069E+03  0.156615E+04  0.100896E+01  0.307127E-05  0.153745E+09  0.289359E+32  0.000000E+00  0.000000E+00  0.000000E+00  0.000000E+00  0.100000E+01  0.301384E+03  0.271396E+03  0.287069E+03
 -0.255000E-02  0.500000E-04  0.342762E+03  0.521754E+01  0.361122E+24  0.167922E-01  0.303141E+03  0.273362E+03  0.287765E+03  0.151129E+04  0.965741E+00  0.320597E-05  0.148338E+09  0.267841E+32  0.000000E+00  0.000000E+00  0.000000E+00  0.000000E+00  0.100000E+01  0.303141E+03  0.273362E+03  0.287765E+03
 -0.245000E-02  0.500000E-04  0.324574E+03  0.610080E+01  0.362802E+24  0.168703E-01  0.303813E+03  0.275265E+03  0.288458E+03  0.152169E+04  0.913538E+00  0.319290E-05  0.147309E+09  0.267221E+32  0.000000E+00  0.000000E+00  0.000000E+00  0.000000E+00  0.100000E+01  0.303813E+03  0.275265E+03  0.288458E+03
 -0.235000E-02  0.500000E-04  0.321375E+03  0.482088E+01  0.345299E+24  0.160564E-01  0.302101E+03  0.275357E+03  0.288701E+03  0.144011E+04  0.907038E+00  0.335001E-05  0.140442E+09  0.242472E+32  0.000000E+00  0.000000E+00  0.000000E+00  0.000000E+00  0.100000E+01  0.302101E+03  0.275357E+03  0.288701E+03
 -0.225000E-02  0.500000E-04  0.316121E+03  0.464203E+01  0.335894E+24  0.156191E-01  0.306091E+03  0.277626E+03  0.289409E+03  0.141939E+04  0.886370E+00  0.345513E-05  0.138387E+09  0.232417E+32  0.000000E+00  0.000000E+00  0.000000E+00  0.000000E+00  0.100000E+01  0.306091E+03  0.277626E+03  0.289409E+03
 -0.215000E-02  0.500000E-04  0.307962E+03  0.153452E+01  0.336253E+24  0.156357E-01  0.305860E+03  0.281000E+03  0.289069E+03  0.141984E+04  0.863737E+00  0.345078E-05  0.137437E+09  0.231067E+32  0.000000E+00  0.000000E+00  0.000000E+00  0.000000E+00  0.100000E+01  0.305860E+03  0.281000E+03  0.289069E+03
 -0.205000E-02  0.500000E-04  0.290835E+03  0.855137E+01  0.335924E+24  0.156205E-01  0.306028E+03  0.284326E+03  0.289724E+03  0.141923E+04  0.815819E+00  0.345463E-05  0.137982E+09  0.231757E+32  0.000000E+00  0.000000E+00  0.000000E+00  0.000000E+00  0.100000E+01  0.306028E+03  0.284327E+03  0.289724E+03
 -0.195000E-02  0.500000E-04  0.275208E+03  0.527789E+01  0.330606E+24  0.153732E-01  0.305716E+03  0.286403E+03  0.290015E+03  0.139533E+04  0.772185E+00  0.350931E-05  0.136063E+09  0.224916E+32  0.000000E+00  0.000000E+00  0.000000E+00  0.000000E+00  0.100000E+01  0.305716E+03  0.286403E+03  0.290015E+03
 -0.185000E-02  0.500000E-04  0.268969E+03  0.173592E+01  0.323532E+24  0.150442E-01  0.305501E+03  0.285631E+03  0.290434E+03  0.136452E+04  0.754823E+00  0.358541E-05  0.132544E+09  0.214412E+32  0.000000E+00  0.000000E+00  0.000000E+00  0.000000E+00  0.100000E+01  0.305501E+03  0.285631E+03  0.290434E+03
 -0.175000E-02  0.500000E-04  0.256654E+03  0.550857E+01  0.322316E+24  0.149877E-01  0.306282E+03  0.290425E+03  0.290639E+03  0.136286E+04  0.719493E+00  0.360124E-05  0.132014E+09  0.212751E+32  0.000000E+00  0.000000E+00  0.000000E+00  0.000000E+00  0.100000E+01  0.306282E+03  0.290425E+03  0.290639E+03
 -0.165000E-02  0.500000E-04  0.257915E+03  0.512784E+01  0.307046E+24  0.142776E-01  0.309289E+03  0.288786E+03  0.290636E+03  0.131104E+04  0.719483E+00  0.378957E-05  0.126995E+09  0.194967E+32  0.000000E+00  0.000000E+00  0.000000E+00  0.000000E+00  0.100000E+01  0.309289E+03  0.288786E+03  0.290636E+03
 -0.155000E-02  0.500000E-04  0.255616E+03 -0.173826E+00  0.300155E+24  0.139572E-01  0.310405E+03  0.289878E+03  0.291124E+03  0.128624E+04  0.711645E+00  0.388008E-05  0.123949E+09  0.186020E+32  0.000000E+00  0.000000E+00  0.000000E+00  0.000000E+00  0.100000E+01  0.310405E+03  0.289878E+03  0.291124E+03
 -0.145000E-02  0.500000E-04  0.241348E+03  0.379539E+01  0.304262E+24  0.141482E-01  0.310678E+03  0.294095E+03  0.291315E+03  0.130499E+04  0.671713E+00  0.382853E-05  0.124882E+09  0.189984E+32  0.000000E+00  0.000000E+00  0.000000E+00  0.000000E+00  0.100000E+01  0.310678E+03  0.294095E+03  0.291315E+03
 -0.135000E-02  0.500000E-04  0.240269E+03  0.136855E+01  0.303156E+24  0.140967E-01  0.307643E+03  0.287061E+03  0.291897E+03  0.128754E+04  0.671926E+00  0.383309E-05  0.124642E+09  0.188930E+32  0.000000E+00  0.000000E+00  0.000000E+00  0.000000E+00  0.100000E+01  0.307643E+03  0.287061E+03  0.291897E+03
 -0.125000E-02  0.500000E-04  0.238186E+03  0.528983E+00  0.297624E+24  0.138395E-01  0.308813E+03  0.289264E+03  0.291872E+03  0.126886E+04  0.664830E+00  0.390804E-05  0.122470E+09  0.182249E+32  0.000000E+00  0.000000E+00  0.000000E+00  0.000000E+00  0.100000E+01  0.308813E+03  0.289264E+03  0.291872E+03
 -0.115000E-02  0.500000E-04  0.234169E+03  0.256675E+01  0.295297E+24  0.137313E-01  0.310864E+03  0.295685E+03  0.292214E+03  0.126729E+04  0.651494E+00  0.394536E-05  0.121548E+09  0.179464E+32  0.000000E+00  0.000000E+00  0.000000E+00  0.000000E+00  0.100000E+01  0.310864E+03  0.295685E+03  0.292214E+03
 -0.105000E-02  0.500000E-04  0.227762E+03  0.320250E+01  0.293743E+24  0.136590E-01  0.308347E+03  0.293362E+03  0.292417E+03  0.125042E+04  0.636276E+00  0.395818E-05  0.121019E+09  0.177742E+32  0.000000E+00  0.000000E+00  0.000000E+00  0.000000E+00  0.100000E+01  0.308347E+03  0.293362E+03  0.292417E+03
 -0.950000E-03  0.500000E-04  0.221020E+03  0.482375E+01  0.291498E+24  0.135547E-01  0.309373E+03  0.292273E+03  0.293051E+03  0.124499E+04  0.616501E+00  0.399197E-05  0.119573E+09  0.174277E+32  0.000000E+00  0.000000E+00  0.000000E+00  0.000000E+00  0.100000E+01  0.309373E+03  0.292273E+03  0.293051E+03
 -0.850000E-03  0.500000E-04  0.217983E+03  0.354675E+00  0.283456E+24  0.131807E-01  0.310158E+03  0.295633E+03  0.292995E+03  0.121372E+04  0.607118E+00  0.410784E-05  0.116912E+09  0.165697E+32  0.000000E+00  0.000000E+00  0.000000E+00  0.000000E+00  0.100000E+01  0.310158E+03  0.295633E+03  0.292995E+03
 -0.750000E-03  0.500000E-04  0.215740E+03  0.359174E+00  0.285721E+24  0.132860E-01  0.309504E+03  0.298141E+03  0.293035E+03  0.122083E+04  0.601506E+00  0.407312E-05  0.118059E+09  0.168660E+32  0.000000E+00  0.000000E+00  0.000000E+00  0.000000E+00  0.100000E+01  0.309504E+03  0.298141E+03  0.293035E+03
 -0.650000E-03  0.500000E-04  0.213732E+03  0.194439E+01  0.282999E+24  0.131595E-01  0.311936E+03  0.295443E+03  0.293407E+03  0.121871E+04  0.593602E+00  0.412035E-05  0.117500E+09  0.166262E+32  0.000000E+00  0.000000E+00  0.000000E+00  0.000000E+00  0.100000E+01  0.311936E+03  0.295443E+03  0.293407E+03
 -0.550000E-03  0.500000E-04  0.205310E+03  0.256857E+01  0.284625E+24  0.132351E-01  0.314073E+03  0.298833E+03  0.293351E+03  0.123411E+04  0.568289E+00  0.410381E-05  0.117922E+09  0.167818E+32  0.000000E+00  0.000000E+00  0.000000E+00  0.000000E+00  0.100000E+01  0.314073E+03  0.298833E+03  0.293351E+03
 -0.450000E-03  0.500000E-04  0.210639E+03  0.123070E+00  0.272398E+24  0.126665E-01  0.313975E+03  0.300469E+03  0.293614E+03  0.118072E+04  0.583084E+00  0.428769E-05  0.113220E+09  0.154205E+32  0.000000E+00  0.000000E+00  0.000000E+00  0.000000E+00  0.100000E+01  0.313975E+03  0.300469E+03  0.293614E+03
 -0.350000E-03  0.500000E-04  0.200061E+03  0.947859E+00  0.286277E+24  0.133119E-01  0.310235E+03  0.297223E+03  0.293444E+03  0.122610E+04  0.557139E+00  0.406761E-05  0.118573E+09  0.169724E+32  0.000000E+00  0.000000E+00  0.000000E+00  0.000000E+00  0.100000E+01  0.310235E+03  0.297223E+03  0.293444E+03
 -0.250000E-03  0.500000E-04  0.196853E+03 -0.790113E-01  0.283039E+24  0.131613E-01  0.309818E+03  0.299003E+03  0.293352E+03  0.121060E+04  0.548566E+00  0.411276E-05  0.116921E+09  0.165466E+32  0.000000E+00  0.000000E+00  0.000000E+00  0.000000E+00  0.100000E+01  0.309818E+03  0.299003E+03  0.293352E+03
 -0.150000E-03  0.500000E-04  0.191894E+03  0.407967E+01  0.279900E+24  0.130154E-01  0.310902E+03  0.300841E+03  0.293897E+03  0.120137E+04  0.533936E+00  0.416251E-05  0.115280E+09  0.161335E+32  0.000000E+00  0.000000E+00  0.000000E+00  0.000000E+00  0.100000E+01  0.310902E+03  0.300841E+03  0.293897E+03
 -0.499999E-04  0.500000E-04  0.188612E+03  0.209139E+00  0.278236E+24  0.129380E-01  0.307047E+03  0.299190E+03  0.294742E+03  0.117942E+04  0.527968E+00  0.417436E-05  0.114950E+09  0.159917E+32  0.000000E+00  0.000000E+00  0.000000E+00  0.000000E+00  0.100000E+01  0.307047E+03  0.299190E+03  0.294742E+03
  0.499999E-04  0.500000E-04  0.184508E+03  0.191893E+00  0.280657E+24  0.130505E-01  0.306020E+03  0.298311E+03  0.294717E+03  0.118570E+04  0.517346E+00  0.413490E-05  0.116139E+09  0.162976E+32  0.000000E+00  0.000000E+00  0.000000E+00  0.000000E+00  0.100000E+01  0.306020E+03  0.298311E+03  0.294717E+03
  0.150000E-03  0.500000E-04  0.182625E+03  0.242551E+01  0.276484E+24  0.128565E-01  0.305908E+03  0.296816E+03  0.293802E+03  0.116765E+04  0.512206E+00  0.419692E-05  0.114227E+09  0.157909E+32  0.000000E+00  0.000000E+00  0.000000E+00  0.000000E+00  0.100000E+01  0.305908E+03  0.296816E+03  0.293802E+03
  0.250000E-03  0.500000E-04  0.179993E+03  0.257601E+01  0.274861E+24  0.127810E-01  0.307803E+03  0.297297E+03  0.294605E+03  0.116798E+04  0.503274E+00  0.422822E-05  0.112898E+09  0.155157E+32  0.000000E+00  0.000000E+00  0.000000E+00  0.000000E+00  0.100000E+01  0.307803E+03  0.297297E+03  0.294605E+03
  0.350000E-03  0.500000E-04  0.175253E+03 -0.713104E+00  0.278350E+24  0.129433E-01  0.305773E+03  0.300180E+03  0.294829E+03  0.117500E+04  0.491597E+00  0.416833E-05  0.115308E+09  0.160480E+32  0.000000E+00  0.000000E+00  0.000000E+00  0.000000E+00  0.100000E+01  0.305773E+03  0.300180E+03  0.294829E+03
  0.450000E-03  0.500000E-04  0.167186E+03  0.334592E+01  0.276542E+24  0.128592E-01  0.304920E+03  0.297199E+03  0.294425E+03  0.116412E+04  0.469715E+00  0.419264E-05  0.114026E+09  0.157666E+32  0.000000E+00  0.000000E+00  0.000000E+00  0.000000E+00  0.100000E+01  0.304920E+03  0.297199E+03  0.294425E+03
  0.550000E-03  0.500000E-04  0.165850E+03  0.191250E+01  0.267928E+24  0.124586E-01  0.312197E+03  0.303517E+03  0.294733E+03  0.115477E+04  0.460437E+00  0.435304E-05  0.111119E+09  0.148860E+32  0.000000E+00  0.000000E+00  0.000000E+00  0.000000E+00  0.100000E+01  0.312197E+03  0.303517E+03  0.294733E+03
  0.650000E-03  0.500000E-04  0.161683E+03  0.290804E-01  0.272314E+24  0.126626E-01  0.306751E+03  0.297120E+03  0.294828E+03  0.115320E+04  0.452805E+00  0.426411E-05  0.111786E+09  0.152204E+32  0.000000E+00  0.000000E+00  0.000000E+00  0.000000E+00  0.100000E+01  0.306751E+03  0.297120E+03  0.294828E+03
  0.750000E-03  0.500000E-04  0.163605E+03  0.397311E+01  0.265331E+24  0.123379E-01  0.309361E+03  0.299781E+03  0.295658E+03  0.113319E+04  0.456387E+00  0.438562E-05  0.109796E+09  0.145662E+32  0.000000E+00  0.000000E+00  0.000000E+00  0.000000E+00  0.100000E+01  0.309361E+03  0.299781E+03  0.295658E+03
  0.850000E-03  0.500000E-04  0.157066E+03  0.345013E+01  0.274396E+24  0.127594E-01  0.307298E+03  0.300849E+03  0.295182E+03  0.116409E+04  0.439589E+00  0.423365E-05  0.113400E+09  0.155582E+32  0.000000E+00  0.000000E+00  0.000000E+00  0.000000E+00  0.100000E+01  0.307298E+03  0.300849E+03  0.295182E+03
  0.950000E-03  0.500000E-04  0.156824E+03 -0.287057E+00  0.272143E+24  0.126546E-01  0.306431E+03  0.298081E+03  0.295140E+03  0.115127E+04  0.439428E+00  0.426569E-05  0.112402E+09  0.152948E+32  0.000000E+00  0.000000E+00  0.000000E+00  0.000000E+00  0.100000E+01  0.306431E+03  0.298081E+03  0.295140E+03
  0.105000E-02  0.500000E-04  0.153243E+03  0.136020E+01  0.272033E+24  0.126495E-01  0.306488E+03  0.299468E+03  0.295333E+03  0.115102E+04  0.429371E+00  0.426761E-05  0.111803E+09  0.152070E+32  0.000000E+00  0.000000E+00  0.000000E+00  0.000000E+00  0.100000E+01  0.306488E+03  0.299468E+03  0.295333E+03
  0.115000E-02  0.500000E-04  0.153742E+03  0.123278E+00  0.270101E+24  0.125597E-01  0.304043E+03  0.298043E+03  0.295553E+03  0.113373E+04  0.432479E+00  0.428954E-05  0.111235E+09  0.150223E+32  0.000000E+00  0.000000E+00  0.000000E+00  0.000000E+00  0.100000E+01  0.304043E+03  0.298044E+03  0.295553E+03
  0.125000E-02  0.500000E-04  0.159600E+03 -0.921084E+00  0.264152E+24  0.122831E-01  0.307311E+03  0.302674E+03  0.295364E+03  0.112068E+04  0.446571E+00  0.439788E-05  0.109398E+09  0.144489E+32  0.000000E+00  0.000000E+00  0.000000E+00  0.000000E+00  0.100000E+01  0.307311E+03  0.302674E+03  0.295364E+03
  0.135000E-02  0.500000E-04  0.153604E+03  0.758015E+00  0.268447E+24  0.124828E-01  0.309017E+03  0.298783E+03  0.295474E+03  0.114522E+04  0.428605E+00  0.433351E-05  0.110981E+09  0.148962E+32  0.000000E+00  0.000000E+00  0.000000E+00  0.000000E+00  0.100000E+01  0.309017E+03  0.298783E+03  0.295474E+03
  0.145000E-02  0.500000E-04  0.151467E+03  0.189016E+01  0.265761E+24  0.123579E-01  0.308792E+03  0.303085E+03  0.295117E+03  0.113294E+04  0.422823E+00  0.437651E-05  0.109646E+09  0.145699E+32  0.000000E+00  0.000000E+00  0.000000E+00  0.000000E+00  0.100000E+01  0.308792E+03  0.303085E+03  0.295117E+03
  0.155000E-02  0.500000E-04  0.145224E+03  0.104680E+00  0.272942E+24  0.126918E-01  0.308407E+03  0.300023E+03  0.295192E+03  0.116210E+04  0.405619E+00  0.426003E-05  0.113330E+09  0.154663E+32  0.000000E+00  0.000000E+00  0.000000E+00  0.000000E+00  0.100000E+01  0.308407E+03  0.300023E+03  0.295192E+03
  0.165000E-02  0.500000E-04  0.143765E+03  0.377904E+01  0.272461E+24  0.126695E-01  0.303748E+03  0.297723E+03  0.295274E+03  0.114253E+04  0.404751E+00  0.425134E-05  0.113136E+09  0.154126E+32  0.000000E+00  0.000000E+00  0.000000E+00  0.000000E+00  0.100000E+01  0.303748E+03  0.297723E+03  0.295274E+03
  0.175000E-02  0.500000E-04  0.139206E+03  0.129959E+01  0.269071E+24  0.125118E-01  0.301605E+03  0.297574E+03  0.295385E+03  0.112035E+04  0.393186E+00  0.429731E-05  0.111709E+09  0.150288E+32  0.000000E+00  0.000000E+00  0.000000E+00  0.000000E+00  0.100000E+01  0.301605E+03  0.297574E+03  0.295385E+03
  0.185000E-02  0.500000E-04  0.144759E+03 -0.961443E+00  0.261449E+24  0.121574E-01  0.307056E+03  0.298818E+03  0.295626E+03  0.110829E+04  0.405217E+00  0.444243E-05  0.108514E+09  0.141854E+32  0.000000E+00  0.000000E+00  0.000000E+00  0.000000E+00  0.100000E+01  0.307056E+03  0.298818E+03  0.295626E+03
  0.195000E-02  0.500000E-04  0.144371E+03 -0.202909E+00  0.263326E+24  0.122446E-01  0.305030E+03  0.294425E+03  0.295386E+03  0.110888E+04  0.405461E+00  0.440347E-05  0.109071E+09  0.143606E+32  0.000000E+00  0.000000E+00  0.000000E+00  0.000000E+00  0.100000E+01  0.305030E+03  0.294425E+03  0.295386E+03
  0.205000E-02  0.500000E-04  0.142716E+03  0.150592E+00  0.260039E+24  0.120918E-01  0.302461E+03  0.296085E+03  0.295442E+03  0.108581E+04  0.402513E+00  0.444972E-05  0.106538E+09  0.138519E+32  0.000000E+00  0.000000E+00  0.000000E+00  0.000000E+00  0.100000E+01  0.302461E+03  0.296085E+03  0.295442E+03
  0.215000E-02  0.500000E-04  0.138489E+03  0.638965E+00  0.263281E+24  0.122426E-01  0.303833E+03  0.298434E+03  0.295623E+03  0.110434E+04  0.389711E+00  0.439989E-05  0.108248E+09  0.142498E+32  0.000000E+00  0.000000E+00  0.000000E+00  0.000000E+00  0.100000E+01  0.303833E+03  0.298434E+03  0.295623E+03
  0.225000E-02  0.500000E-04  0.134349E+03  0.144804E+01  0.265622E+24  0.123514E-01  0.304868E+03  0.300704E+03  0.295412E+03  0.111796E+04  0.377436E+00  0.436482E-05  0.109630E+09  0.145601E+32  0.000000E+00  0.000000E+00  0.000000E+00  0.000000E+00  0.100000E+01  0.304868E+03  0.300704E+03  0.295412E+03
  0.235000E-02  0.500000E-04  0.136094E+03 -0.195713E+00  0.263100E+24  0.122341E-01  0.304769E+03  0.300151E+03  0.295361E+03  0.110698E+04  0.382379E+00  0.440631E-05  0.108251E+09  0.142404E+32  0.000000E+00  0.000000E+00  0.000000E+00  0.000000E+00  0.100000E+01  0.304769E+03  0.300151E+03  0.295361E+03
  0.245000E-02  0.500000E-04  0.135055E+03  0.264188E+01  0.260199E+24  0.120992E-01  0.305183E+03  0.299660E+03  0.296646E+03  0.109626E+04  0.379275E+00  0.445695E-05  0.108550E+09  0.141223E+32  0.000000E+00  0.000000E+00  0.000000E+00  0.000000E+00  0.100000E+01  0.305183E+03  0.299660E+03  0.296646E+03
  0.255000E-02  0.500000E-04  0.135189E+03 -0.263110E+00  0.260833E+24  0.121287E-01  0.304132E+03  0.298203E+03  0.296299E+03  0.109515E+04  0.380236E+00  0.444228E-05  0.107647E+09  0.140390E+32  0.000000E+00  0.000000E+00  0.000000E+00  0.000000E+00  0.100000E+01  0.304132E+03  0.298203E+03  0.296299E+03
  0.265000E-02  0.500000E-04  0.136975E+03  0.587318E+00  0.261931E+24  0.121798E-01  0.305743E+03  0.301191E+03  0.295486E+03  0.110559E+04  0.384245E+00  0.442951E-05  0.108660E+09  0.142306E+32  0.000000E+00  0.000000E+00  0.000000E+00  0.000000E+00  0.100000E+01  0.305743E+03  0.301190E+03  0.295485E+03
  0.275000E-02  0.500000E-04  0.132847E+03  0.341431E+01  0.262988E+24  0.122289E-01  0.303500E+03  0.295569E+03  0.295900E+03  0.110190E+04  0.374159E+00  0.440359E-05  0.109127E+09  0.143495E+32  0.000000E+00  0.000000E+00  0.000000E+00  0.000000E+00  0.100000E+01  0.303500E+03  0.295569E+03  0.295900E+03
  0.285000E-02  0.500000E-04  0.129954E+03  0.482176E+01  0.258356E+24  0.120135E-01  0.306846E+03  0.299670E+03  0.296556E+03  0.109443E+04  0.364140E+00  0.449484E-05  0.106260E+09  0.137265E+32  0.000000E+00  0.000000E+00  0.000000E+00  0.000000E+00  0.100000E+01  0.306846E+03  0.299670E+03  0.296556E+03
  0.295000E-02  0.500000E-04  0.129602E+03 -0.490761E+01  0.259962E+24  0.120882E-01  0.300828E+03  0.296478E+03  0.296004E+03  0.107964E+04  0.366780E+00  0.444500E-05  0.106863E+09  0.138902E+32  0.000000E+00  0.000000E+00  0.000000E+00  0.000000E+00  0.100000E+01  0.300828E+03  0.296478E+03  0.296004E+03
  0.305000E-02  0.500000E-04  0.130007E+03  0.322146E+01  0.264504E+24  0.122994E-01  0.303801E+03  0.297211E+03  0.295899E+03  0.110935E+04  0.365971E+00  0.437944E-05  0.109122E+09  0.144315E+32  0.000000E+00  0.000000E+00  0.000000E+00  0.000000E+00  0.100000E+01  0.303801E+03  0.297211E+03  0.295899E+03
  0.315000E-02  0.500000E-04  0.130233E+03 -0.763408E+00  0.259480E+24  0.120658E-01  0.308348E+03  0.302081E+03  0.295679E+03  0.110457E+04  0.363790E+00  0.448084E-05  0.107982E+09  0.140096E+32  0.000000E+00  0.000000E+00  0.000000E+00  0.000000E+00  0.100000E+01  0.308348E+03  0.302081E+03  0.295679E+03
  0.325000E-02  0.500000E-04  0.129732E+03  0.121174E+01  0.256711E+24  0.119371E-01  0.309615E+03  0.300130E+03  0.296320E+03  0.109728E+04  0.361657E+00  0.453382E-05  0.106681E+09  0.136930E+32  0.000000E+00  0.000000E+00  0.000000E+00  0.000000E+00  0.100000E+01  0.309615E+03  0.300130E+03  0.296320E+03
  0.335000E-02  0.500000E-04  0.127699E+03 -0.788855E+00  0.257348E+24  0.119667E-01  0.304953E+03  0.298890E+03  0.296382E+03  0.108343E+04  0.358692E+00  0.450548E-05  0.106755E+09  0.137366E+32  0.000000E+00  0.000000E+00  0.000000E+00  0.000000E+00  0.100000E+01  0.304953E+03  0.298890E+03  0.296382E+03
  0.345000E-02  0.500000E-04  0.127841E+03  0.175163E+01  0.257754E+24  0.119856E-01  0.298667E+03  0.295091E+03  0.296533E+03  0.106278E+04  0.362877E+00  0.447500E-05  0.104986E+09  0.135304E+32  0.000000E+00  0.000000E+00  0.000000E+00  0.000000E+00  0.100000E+01  0.298667E+03  0.295091E+03  0.296533E+03
  0.355000E-02  0.500000E-04  0.123337E+03 -0.444642E+00  0.260018E+24  0.120908E-01  0.304612E+03  0.299580E+03  0.296209E+03  0.109345E+04  0.346628E+00  0.445796E-05  0.107539E+09  0.139810E+32  0.000000E+00  0.000000E+00  0.000000E+00  0.000000E+00  0.100000E+01  0.304612E+03  0.299580E+03  0.296209E+03
  0.365000E-02  0.500000E-04  0.123653E+03  0.307202E+01  0.257552E+24  0.119762E-01  0.304086E+03  0.298409E+03  0.295286E+03  0.108121E+04  0.347923E+00  0.449870E-05  0.106688E+09  0.137388E+32  0.000000E+00  0.000000E+00  0.000000E+00  0.000000E+00  0.100000E+01  0.304086E+03  0.298409E+03  0.295286E+03
  0.375000E-02  0.500000E-04  0.122831E+03 -0.231364E+01  0.256712E+24  0.119371E-01  0.301688E+03  0.297318E+03  0.295284E+03  0.106919E+04  0.346933E+00  0.450451E-05  0.106001E+09  0.136058E+32  0.000000E+00  0.000000E+00  0.000000E+00  0.000000E+00  0.100000E+01  0.301688E+03  0.297318E+03  0.295284E+03
  0.385000E-02  0.500000E-04  0.120247E+03  0.201644E+01  0.259055E+24  0.120461E-01  0.300299E+03  0.294925E+03  0.296013E+03  0.107398E+04  0.340407E+00  0.445861E-05  0.107023E+09  0.138624E+32  0.000000E+00  0.000000E+00  0.000000E+00  0.000000E+00  0.100000E+01  0.300299E+03  0.294925E+03  0.296012E+03
  0.395000E-02  0.500000E-04  0.120571E+03 -0.219728E+00  0.251298E+24  0.116853E-01  0.304458E+03  0.299391E+03  0.297130E+03  0.105625E+04  0.338939E+00  0.461207E-05  0.104674E+09  0.131522E+32  0.000000E+00  0.000000E+00  0.000000E+00  0.000000E+00  0.100000E+01  0.304458E+03  0.299391E+03  0.297130E+03
  0.405000E-02  0.500000E-04  0.118203E+03  0.161105E+00  0.256655E+24  0.119344E-01  0.303378E+03  0.296239E+03  0.296599E+03  0.107493E+04  0.332872E+00  0.451180E-05  0.106202E+09  0.136286E+32  0.000000E+00  0.000000E+00  0.000000E+00  0.000000E+00  0.100000E+01  0.303378E+03  0.296239E+03  0.296599E+03
  0.415000E-02  0.500000E-04  0.120959E+03 -0.264167E+01  0.251639E+24  0.117012E-01  0.303793E+03  0.298556E+03  0.296548E+03  0.105537E+04  0.340482E+00  0.460331E-05  0.104243E+09  0.131158E+32  0.000000E+00  0.000000E+00  0.000000E+00  0.000000E+00  0.100000E+01  0.303793E+03  0.298556E+03  0.296548E+03
  0.425000E-02  0.500000E-04  0.122405E+03  0.141450E+01  0.254533E+24  0.118358E-01  0.307218E+03  0.300594E+03  0.295894E+03  0.107954E+04  0.342567E+00  0.456373E-05  0.105296E+09  0.134007E+32  0.000000E+00  0.000000E+00  0.000000E+00  0.000000E+00  0.100000E+01  0.307218E+03  0.300594E+03  0.295894E+03
  0.435000E-02  0.500000E-04  0.120379E+03 -0.566894E+00  0.255405E+24  0.118763E-01  0.302766E+03  0.299479E+03  0.295866E+03  0.106754E+04  0.339347E+00  0.453159E-05  0.105443E+09  0.134653E+32  0.000000E+00  0.000000E+00  0.000000E+00  0.000000E+00  0.100000E+01  0.302766E+03  0.299479E+03  0.295866E+03
  0.445000E-02  0.500000E-04  0.115544E+03  0.451824E+01  0.251472E+24  0.116934E-01  0.307167E+03  0.300524E+03  0.296267E+03  0.106638E+04  0.323619E+00  0.461909E-05  0.104427E+09  0.131302E+32  0.000000E+00  0.000000E+00  0.000000E+00  0.000000E+00  0.100000E+01  0.307167E+03  0.300524E+03  0.296267E+03
  0.455000E-02  0.500000E-04  0.111175E+03 -0.127454E+01  0.252180E+24  0.117264E-01  0.305048E+03  0.301273E+03  0.295751E+03  0.106201E+04  0.312243E+00  0.459817E-05  0.104600E+09  0.131890E+32  0.000000E+00  0.000000E+00  0.000000E+00  0.000000E+00  0.100000E+01  0.305048E+03  0.301273E+03  0.295751E+03
  0.465000E-02  0.500000E-04  0.113156E+03  0.182957E+01  0.247134E+24  0.114917E-01  0.309310E+03  0.300762E+03  0.295042E+03  0.105530E+04  0.315631E+00  0.470835E-05  0.102247E+09  0.126344E+32  0.000000E+00  0.000000E+00  0.000000E+00  0.000000E+00  0.100000E+01  0.309310E+03  0.300762E+03  0.295042E+03
  0.475000E-02  0.500000E-04  0.111366E+03  0.342253E+01  0.246576E+24  0.114658E-01  0.306490E+03  0.302861E+03  0.296048E+03  0.104331E+04  0.312170E+00  0.470822E-05  0.101899E+09  0.125630E+32  0.000000E+00  0.000000E+00  0.000000E+00  0.000000E+00  0.100000E+01  0.306490E+03  0.302861E+03  0.296048E+03
  0.485000E-02  0.500000E-04  0.106993E+03 -0.715914E+00  0.250841E+24  0.116641E-01  0.304474E+03  0.299972E+03  0.296009E+03  0.105438E+04  0.300766E+00  0.462053E-05  0.104335E+09  0.130857E+32  0.000000E+00  0.000000E+00  0.000000E+00  0.000000E+00  0.100000E+01  0.304475E+03  0.299972E+03  0.296009E+03
  0.495000E-02  0.500000E-04  0.104983E+03  0.750318E+00  0.250341E+24  0.116408E-01  0.301103E+03  0.296130E+03  0.295928E+03  0.104063E+04  0.296766E+00  0.461689E-05  0.102904E+09  0.128805E+32  0.000000E+00  0.000000E+00  0.000000E+00  0.000000E+00  0.100000E+01  0.301103E+03  0.296130E+03  0.295928E+03
  0.505000E-02  0.500000E-04  0.102503E+03  0.264357E+01  0.253312E+24  0.117790E-01  0.300214E+03  0.295437E+03  0.295944E+03  0.104987E+04  0.290274E+00  0.455938E-05  0.104208E+09  0.131986E+32  0.000000E+00  0.000000E+00  0.000000E+00  0.000000E+00  0.100000E+01  0.300214E+03  0.295437E+03  0.295944E+03
  0.515000E-02  0.500000E-04  0.106329E+03 -0.375924E+01  0.254612E+24  0.118394E-01  0.302336E+03  0.298036E+03  0.296298E+03  0.106272E+04  0.300137E+00  0.454409E-05  0.105330E+09  0.134091E+32  0.000000E+00  0.000000E+00  0.000000E+00  0.000000E+00  0.100000E+01  0.302336E+03  0.298036E+03  0.296298E+03
  0.525000E-02  0.500000E-04  0.108314E+03  0.337767E+01  0.249297E+24  0.115923E-01  0.303393E+03  0.297502E+03  0.296821E+03  0.104417E+04  0.305164E+00  0.464501E-05  0.102952E+09  0.128329E+32  0.000000E+00  0.000000E+00  0.000000E+00  0.000000E+00  0.100000E+01  0.303393E+03  0.297502E+03  0.296821E+03
  0.535000E-02  0.500000E-04  0.104861E+03 -0.146515E+01  0.249688E+24  0.116105E-01  0.302970E+03  0.300564E+03  0.295308E+03  0.104435E+04  0.295527E+00  0.463612E-05  0.103290E+09  0.128952E+32  0.000000E+00  0.000000E+00  0.000000E+00  0.000000E+00  0.100000E+01  0.302970E+03  0.300564E+03  0.295308E+03
  0.545000E-02  0.500000E-04  0.110256E+03 -0.929201E+00  0.244237E+24  0.113570E-01  0.305763E+03  0.301328E+03  0.296336E+03  0.103097E+04  0.309290E+00  0.475048E-05  0.101075E+09  0.123432E+32  0.000000E+00  0.000000E+00  0.000000E+00  0.000000E+00  0.100000E+01  0.305763E+03  0.301328E+03  0.296336E+03