TITLE=" Box                                                                     /                                                                         "
VARIABLES="X",        "Y",      "Vx   ",      "Vy   ",      "Nden ",      "Rho  ",      "Ttrn ",      "Trot ",      "Tvib ",      "Press",      "Ma   ",      "Lambd",      "Relac",      "Coll ",      "frac1",      "Ttrn1",      "Trot1",      "Tvib1",      "frac2",      "Ttrn2",      "Trot2",      "Tvib2"
ZONE T="DSMC,BG", I=  200, J=   50, F=POINT
 -0.395000E-02  0.500000E-04  0.799375E+03  0.254259E+02  0.129449E+25  0.601936E-01  0.102733E+03  0.855912E+02  0.233643E+03  0.183593E+04  0.387038E+01  0.682391E-06  0.389500E+09  0.252101E+33  0.000000E+00  0.000000E+00  0.000000E+00  0.000000E+00  0.100000E+01  0.102733E+03  0.855912E+02  0.233643E+03
 -0.385000E-02  0.500000E-04  0.739781E+03  0.689680E+02  0.140066E+25  0.651309E-01  0.145119E+03  0.116952E+03  0.245795E+03  0.280612E+04  0.302523E+01  0.687543E-06  0.482628E+09  0.338000E+33  0.000000E+00  0.000000E+00  0.000000E+00  0.000000E+00  0.100000E+01  0.145119E+03  0.116952E+03  0.245795E+03
 -0.375000E-02  0.500000E-04  0.711905E+03  0.897751E+02  0.138653E+25  0.644736E-01  0.160631E+03  0.130839E+03  0.250120E+03  0.307473E+04  0.277698E+01  0.712411E-06  0.531376E+09  0.368384E+33  0.000000E+00  0.000000E+00  0.000000E+00  0.000000E+00  0.100000E+01  0.160631E+03  0.130839E+03  0.250120E+03
 -0.365000E-02  0.500000E-04  0.675223E+03  0.739212E+02  0.110494E+25  0.513798E-01  0.184656E+03  0.148376E+03  0.256820E+03  0.281678E+04  0.245183E+01  0.925667E-06  0.456353E+09  0.252121E+33  0.000000E+00  0.000000E+00  0.000000E+00  0.000000E+00  0.100000E+01  0.184656E+03  0.148376E+03  0.256820E+03
 -0.355000E-02  0.500000E-04  0.633406E+03  0.512980E+02  0.851108E+24  0.395765E-01  0.208845E+03  0.169922E+03  0.263607E+03  0.245391E+04  0.215689E+01  0.123929E-05  0.354257E+09  0.150755E+33  0.000000E+00  0.000000E+00  0.000000E+00  0.000000E+00  0.100000E+01  0.208845E+03  0.169922E+03  0.263607E+03
 -0.345000E-02  0.500000E-04  0.580575E+03  0.388639E+02  0.714332E+24  0.332165E-01  0.236758E+03  0.191491E+03  0.269697E+03  0.233482E+04  0.185488E+01  0.152363E-05  0.292444E+09  0.104451E+33  0.000000E+00  0.000000E+00  0.000000E+00  0.000000E+00  0.100000E+01  0.236758E+03  0.191491E+03  0.269697E+03
 -0.335000E-02  0.500000E-04  0.541486E+03  0.287026E+02  0.615535E+24  0.286224E-01  0.250393E+03  0.206215E+03  0.274044E+03  0.212777E+04  0.168083E+01  0.179311E-05  0.251324E+09  0.773494E+32  0.000000E+00  0.000000E+00  0.000000E+00  0.000000E+00  0.100000E+01  0.250393E+03  0.206215E+03  0.274044E+03
 -0.325000E-02  0.500000E-04  0.500087E+03  0.246497E+02  0.555094E+24  0.258119E-01  0.265596E+03  0.221463E+03  0.277834E+03  0.203534E+04  0.150696E+01  0.201786E-05  0.224964E+09  0.624381E+32  0.000000E+00  0.000000E+00  0.000000E+00  0.000000E+00  0.100000E+01  0.265596E+03  0.221463E+03  0.277834E+03
 -0.315000E-02  0.500000E-04  0.468388E+03  0.195149E+02  0.506142E+24  0.235356E-01  0.276331E+03  0.234152E+03  0.279827E+03  0.193086E+04  0.138327E+01  0.223505E-05  0.207065E+09  0.524021E+32  0.000000E+00  0.000000E+00  0.000000E+00  0.000000E+00  0.100000E+01  0.276331E+03  0.234152E+03  0.279827E+03
 -0.305000E-02  0.500000E-04  0.428823E+03  0.175000E+02  0.479318E+24  0.222883E-01  0.287169E+03  0.245486E+03  0.282517E+03  0.190025E+04  0.124225E+01  0.238294E-05  0.194407E+09  0.465914E+32  0.000000E+00  0.000000E+00  0.000000E+00  0.000000E+00  0.100000E+01  0.287169E+03  0.245486E+03  0.282517E+03
 -0.295000E-02  0.500000E-04  0.416943E+03  0.127964E+02  0.433030E+24  0.201359E-01  0.288760E+03  0.250667E+03  0.283942E+03  0.172625E+04  0.120407E+01  0.264131E-05  0.175704E+09  0.380425E+32  0.000000E+00  0.000000E+00  0.000000E+00  0.000000E+00  0.100000E+01  0.288760E+03  0.250667E+03  0.283942E+03
 -0.285000E-02  0.500000E-04  0.394223E+03  0.119061E+02  0.417007E+24  0.193908E-01  0.294197E+03  0.258884E+03  0.285103E+03  0.169368E+04  0.112787E+01  0.275562E-05  0.170213E+09  0.354901E+32  0.000000E+00  0.000000E+00  0.000000E+00  0.000000E+00  0.100000E+01  0.294197E+03  0.258884E+03  0.285103E+03
 -0.275000E-02  0.500000E-04  0.373856E+03  0.959410E+01  0.403312E+24  0.187540E-01  0.296177E+03  0.262736E+03  0.286015E+03  0.164908E+04  0.106589E+01  0.285397E-05  0.163110E+09  0.328921E+32  0.000000E+00  0.000000E+00  0.000000E+00  0.000000E+00  0.100000E+01  0.296177E+03  0.262736E+03  0.286015E+03
 -0.265000E-02  0.500000E-04  0.355541E+03  0.106667E+02  0.389398E+24  0.181070E-01  0.298701E+03  0.265276E+03  0.287443E+03  0.160576E+04  0.100950E+01  0.296222E-05  0.157924E+09  0.307477E+32  0.000000E+00  0.000000E+00  0.000000E+00  0.000000E+00  0.100000E+01  0.298701E+03  0.265276E+03  0.287443E+03
 -0.255000E-02  0.500000E-04  0.349696E+03  0.493999E+01  0.365004E+24  0.169727E-01  0.299204E+03  0.270081E+03  0.287773E+03  0.150769E+04  0.991723E+00  0.316153E-05  0.149234E+09  0.272354E+32  0.000000E+00  0.000000E+00  0.000000E+00  0.000000E+00  0.100000E+01  0.299204E+03  0.270081E+03  0.287773E+03
 -0.245000E-02  0.500000E-04  0.339659E+03  0.547503E+01  0.354910E+24  0.165033E-01  0.301804E+03  0.273790E+03  0.287901E+03  0.147874E+04  0.959128E+00  0.325849E-05  0.144897E+09  0.257127E+32  0.000000E+00  0.000000E+00  0.000000E+00  0.000000E+00  0.100000E+01  0.301804E+03  0.273790E+03  0.287901E+03
 -0.235000E-02  0.500000E-04  0.320571E+03  0.834590E+01  0.356417E+24  0.165734E-01  0.306892E+03  0.280269E+03  0.288872E+03  0.151005E+04  0.897880E+00  0.325830E-05  0.145925E+09  0.260051E+32  0.000000E+00  0.000000E+00  0.000000E+00  0.000000E+00  0.100000E+01  0.306892E+03  0.280269E+03  0.288872E+03
 -0.225000E-02  0.500000E-04  0.312477E+03  0.394291E+01  0.341786E+24  0.158931E-01  0.306385E+03  0.281310E+03  0.289406E+03  0.144568E+04  0.875708E+00  0.339637E-05  0.140518E+09  0.240135E+32  0.000000E+00  0.000000E+00  0.000000E+00  0.000000E+00  0.100000E+01  0.306385E+03  0.281310E+03  0.289406E+03
 -0.215000E-02  0.500000E-04  0.298868E+03  0.502291E+01  0.340165E+24  0.158177E-01  0.306900E+03  0.285474E+03  0.289981E+03  0.144124E+04  0.836918E+00  0.341399E-05  0.139022E+09  0.236452E+32  0.000000E+00  0.000000E+00  0.000000E+00  0.000000E+00  0.100000E+01  0.306900E+03  0.285474E+03  0.289981E+03
 -0.205000E-02  0.500000E-04  0.287450E+03  0.536208E+01  0.332252E+24  0.154497E-01  0.308260E+03  0.283563E+03  0.290145E+03  0.141395E+04  0.803192E+00  0.349917E-05  0.136537E+09  0.226822E+32  0.000000E+00  0.000000E+00  0.000000E+00  0.000000E+00  0.100000E+01  0.308260E+03  0.283563E+03  0.290145E+03
 -0.195000E-02  0.500000E-04  0.278288E+03  0.477714E+01  0.328229E+24  0.152627E-01  0.307566E+03  0.285652E+03  0.290689E+03  0.139369E+04  0.778447E+00  0.354006E-05  0.134898E+09  0.221388E+32  0.000000E+00  0.000000E+00  0.000000E+00  0.000000E+00  0.100000E+01  0.307566E+03  0.285652E+03  0.290689E+03
 -0.185000E-02  0.500000E-04  0.273562E+03 -0.169196E+01  0.322778E+24  0.150092E-01  0.305603E+03  0.284510E+03  0.290328E+03  0.136179E+04  0.767583E+00  0.359408E-05  0.131900E+09  0.212873E+32  0.000000E+00  0.000000E+00  0.000000E+00  0.000000E+00  0.100000E+01  0.305603E+03  0.284510E+03  0.290328E+03
 -0.175000E-02  0.500000E-04  0.272677E+03  0.314264E+01  0.315878E+24  0.146883E-01  0.304015E+03  0.283551E+03  0.290353E+03  0.132576E+04  0.767133E+00  0.366782E-05  0.129488E+09  0.204512E+32  0.000000E+00  0.000000E+00  0.000000E+00  0.000000E+00  0.100000E+01  0.304015E+03  0.283551E+03  0.290353E+03
 -0.165000E-02  0.500000E-04  0.267804E+03  0.135218E+01  0.309646E+24  0.143985E-01  0.307587E+03  0.285982E+03  0.290826E+03  0.131487E+04  0.748995E+00  0.375258E-05  0.127284E+09  0.197064E+32  0.000000E+00  0.000000E+00  0.000000E+00  0.000000E+00  0.100000E+01  0.307587E+03  0.285982E+03  0.290826E+03
 -0.155000E-02  0.500000E-04  0.262059E+03  0.443475E+01  0.304522E+24  0.141603E-01  0.309548E+03  0.290023E+03  0.291185E+03  0.130136E+04  0.730698E+00  0.382179E-05  0.124972E+09  0.190284E+32  0.000000E+00  0.000000E+00  0.000000E+00  0.000000E+00  0.100000E+01  0.309548E+03  0.290023E+03  0.291185E+03
 -0.145000E-02  0.500000E-04  0.247065E+03  0.574419E+01  0.308812E+24  0.143598E-01  0.309280E+03  0.292783E+03  0.291760E+03  0.131854E+04  0.689277E+00  0.376787E-05  0.127412E+09  0.196732E+32  0.000000E+00  0.000000E+00  0.000000E+00  0.000000E+00  0.100000E+01  0.309280E+03  0.292783E+03  0.291760E+03
 -0.135000E-02  0.500000E-04  0.244433E+03  0.205499E+01  0.299819E+24  0.139416E-01  0.308929E+03  0.291842E+03  0.292366E+03  0.127870E+04  0.682159E+00  0.387979E-05  0.124239E+09  0.186246E+32  0.000000E+00  0.000000E+00  0.000000E+00  0.000000E+00  0.100000E+01  0.308929E+03  0.291842E+03  0.292366E+03
 -0.125000E-02  0.500000E-04  0.241142E+03  0.467676E+00  0.295032E+24  0.137190E-01  0.306113E+03  0.289839E+03  0.292159E+03  0.124681E+04  0.676042E+00  0.393373E-05  0.121217E+09  0.178814E+32  0.000000E+00  0.000000E+00  0.000000E+00  0.000000E+00  0.100000E+01  0.306113E+03  0.289839E+03  0.292159E+03
 -0.115000E-02  0.500000E-04  0.235629E+03  0.225168E+01  0.294359E+24  0.136877E-01  0.307758E+03  0.292022E+03  0.292021E+03  0.125065E+04  0.658847E+00  0.394800E-05  0.120973E+09  0.178048E+32  0.000000E+00  0.000000E+00  0.000000E+00  0.000000E+00  0.100000E+01  0.307758E+03  0.292022E+03  0.292021E+03
 -0.105000E-02  0.500000E-04  0.228826E+03  0.219848E+01  0.295174E+24  0.137256E-01  0.304747E+03  0.292309E+03  0.293148E+03  0.124184E+04  0.642977E+00  0.392744E-05  0.121446E+09  0.179238E+32  0.000000E+00  0.000000E+00  0.000000E+00  0.000000E+00  0.100000E+01  0.304747E+03  0.292309E+03  0.293148E+03
 -0.950000E-03  0.500000E-04  0.224206E+03  0.439745E+01  0.291123E+24  0.135372E-01  0.306988E+03  0.293159E+03  0.293553E+03  0.123381E+04  0.627785E+00  0.398939E-05  0.120256E+09  0.175047E+32  0.000000E+00  0.000000E+00  0.000000E+00  0.000000E+00  0.100000E+01  0.306988E+03  0.293159E+03  0.293553E+03
 -0.850000E-03  0.500000E-04  0.215549E+03  0.335384E+01  0.291113E+24  0.135367E-01  0.308788E+03  0.294837E+03  0.294153E+03  0.124100E+04  0.601740E+00  0.399537E-05  0.120179E+09  0.174928E+32  0.000000E+00  0.000000E+00  0.000000E+00  0.000000E+00  0.100000E+01  0.308788E+03  0.294837E+03  0.294153E+03
 -0.750000E-03  0.500000E-04  0.206051E+03  0.416320E+01  0.295173E+24  0.137255E-01  0.309424E+03  0.297061E+03  0.293506E+03  0.126090E+04  0.574681E+00  0.394244E-05  0.121523E+09  0.179351E+32  0.000000E+00  0.000000E+00  0.000000E+00  0.000000E+00  0.100000E+01  0.309424E+03  0.297061E+03  0.293506E+03
 -0.650000E-03  0.500000E-04  0.197633E+03  0.405231E+01  0.292154E+24  0.135852E-01  0.310766E+03  0.299676E+03  0.294205E+03  0.125342E+04  0.550016E+00  0.398748E-05  0.121521E+09  0.177515E+32  0.000000E+00  0.000000E+00  0.000000E+00  0.000000E+00  0.100000E+01  0.310766E+03  0.299676E+03  0.294205E+03
 -0.550000E-03  0.500000E-04  0.198240E+03  0.290119E+01  0.279377E+24  0.129910E-01  0.311480E+03  0.301982E+03  0.294287E+03  0.120135E+04  0.551015E+00  0.417224E-05  0.115798E+09  0.161756E+32  0.000000E+00  0.000000E+00  0.000000E+00  0.000000E+00  0.100000E+01  0.311480E+03  0.301982E+03  0.294287E+03
 -0.450000E-03  0.500000E-04  0.192820E+03 -0.488168E+00  0.283134E+24  0.131657E-01  0.308099E+03  0.296290E+03  0.293358E+03  0.120429E+04  0.538827E+00  0.410567E-05  0.116727E+09  0.165247E+32  0.000000E+00  0.000000E+00  0.000000E+00  0.000000E+00  0.100000E+01  0.308099E+03  0.296290E+03  0.293358E+03
 -0.350000E-03  0.500000E-04  0.187021E+03 -0.104372E+01  0.288363E+24  0.134089E-01  0.304168E+03  0.294122E+03  0.294625E+03  0.121088E+04  0.525995E+00  0.401829E-05  0.118453E+09  0.170788E+32  0.000000E+00  0.000000E+00  0.000000E+00  0.000000E+00  0.100000E+01  0.304168E+03  0.294122E+03  0.294625E+03
 -0.250000E-03  0.500000E-04  0.191887E+03  0.227486E+01  0.277983E+24  0.129262E-01  0.309718E+03  0.297902E+03  0.294180E+03  0.118860E+04  0.534851E+00  0.418723E-05  0.115401E+09  0.160397E+32  0.000000E+00  0.000000E+00  0.000000E+00  0.000000E+00  0.100000E+01  0.309718E+03  0.297902E+03  0.294180E+03
 -0.150000E-03  0.500000E-04  0.184896E+03  0.455790E+01  0.277300E+24  0.128944E-01  0.309028E+03  0.299773E+03  0.293607E+03  0.118303E+04  0.516063E+00  0.419520E-05  0.114307E+09  0.158486E+32  0.000000E+00  0.000000E+00  0.000000E+00  0.000000E+00  0.100000E+01  0.309028E+03  0.299773E+03  0.293607E+03
 -0.499999E-04  0.500000E-04  0.188750E+03 -0.200286E+01  0.271696E+24  0.126338E-01  0.310381E+03  0.297647E+03  0.294025E+03  0.116420E+04  0.525540E+00  0.428641E-05  0.112270E+09  0.152516E+32  0.000000E+00  0.000000E+00  0.000000E+00  0.000000E+00  0.100000E+01  0.310381E+03  0.297647E+03  0.294025E+03
  0.499999E-04  0.500000E-04  0.185146E+03  0.300731E+00  0.277293E+24  0.128941E-01  0.310015E+03  0.300392E+03  0.293887E+03  0.118678E+04  0.515780E+00  0.419865E-05  0.114862E+09  0.159252E+32  0.000000E+00  0.000000E+00  0.000000E+00  0.000000E+00  0.100000E+01  0.310015E+03  0.300392E+03  0.293887E+03
  0.150000E-03  0.500000E-04  0.182270E+03  0.563233E+00  0.276693E+24  0.128662E-01  0.311180E+03  0.297911E+03  0.293779E+03  0.118866E+04  0.506818E+00  0.421171E-05  0.114276E+09  0.158097E+32  0.000000E+00  0.000000E+00  0.000000E+00  0.000000E+00  0.100000E+01  0.311180E+03  0.297911E+03  0.293779E+03
  0.250000E-03  0.500000E-04  0.177488E+03  0.227191E+01  0.279433E+24  0.129937E-01  0.306017E+03  0.299064E+03  0.293663E+03  0.118052E+04  0.497707E+00  0.415299E-05  0.115561E+09  0.161458E+32  0.000000E+00  0.000000E+00  0.000000E+00  0.000000E+00  0.100000E+01  0.306017E+03  0.299064E+03  0.293663E+03
  0.350000E-03  0.500000E-04  0.175053E+03  0.460815E+01  0.274883E+24  0.127821E-01  0.305898E+03  0.295872E+03  0.293998E+03  0.116084E+04  0.491102E+00  0.422132E-05  0.113416E+09  0.155881E+32  0.000000E+00  0.000000E+00  0.000000E+00  0.000000E+00  0.100000E+01  0.305898E+03  0.295872E+03  0.293998E+03
  0.450000E-03  0.500000E-04  0.170111E+03  0.844171E+00  0.271064E+24  0.126045E-01  0.309741E+03  0.300691E+03  0.294222E+03  0.115910E+04  0.474110E+00  0.429418E-05  0.112282E+09  0.152178E+32  0.000000E+00  0.000000E+00  0.000000E+00  0.000000E+00  0.100000E+01  0.309741E+03  0.300691E+03  0.294222E+03
  0.550000E-03  0.500000E-04  0.167235E+03  0.386554E+00  0.269276E+24  0.125213E-01  0.310124E+03  0.299722E+03  0.294539E+03  0.115287E+04  0.465803E+00  0.432404E-05  0.111123E+09  0.149614E+32  0.000000E+00  0.000000E+00  0.000000E+00  0.000000E+00  0.100000E+01  0.310124E+03  0.299722E+03  0.294539E+03
  0.650000E-03  0.500000E-04  0.162299E+03  0.195761E+01  0.272142E+24  0.126546E-01  0.309530E+03  0.303939E+03  0.294938E+03  0.116291E+04  0.452520E+00  0.427645E-05  0.112015E+09  0.152420E+32  0.000000E+00  0.000000E+00  0.000000E+00  0.000000E+00  0.100000E+01  0.309530E+03  0.303939E+03  0.294938E+03
  0.750000E-03  0.500000E-04  0.163594E+03  0.169157E+01  0.270460E+24  0.125764E-01  0.308072E+03  0.299682E+03  0.294546E+03  0.115028E+04  0.457198E+00  0.429796E-05  0.111699E+09  0.151051E+32  0.000000E+00  0.000000E+00  0.000000E+00  0.000000E+00  0.100000E+01  0.308072E+03  0.299682E+03  0.294546E+03
  0.850000E-03  0.500000E-04  0.166918E+03 -0.656349E+00  0.265949E+24  0.123666E-01  0.312719E+03  0.303071E+03  0.295097E+03  0.114816E+04  0.462989E+00  0.438725E-05  0.110232E+09  0.146581E+32  0.000000E+00  0.000000E+00  0.000000E+00  0.000000E+00  0.100000E+01  0.312719E+03  0.303071E+03  0.295097E+03
  0.950000E-03  0.500000E-04  0.163907E+03  0.270729E+01  0.264033E+24  0.122775E-01  0.315119E+03  0.307253E+03  0.294700E+03  0.114863E+04  0.452962E+00  0.442755E-05  0.109438E+09  0.144476E+32  0.000000E+00  0.000000E+00  0.000000E+00  0.000000E+00  0.100000E+01  0.315119E+03  0.307253E+03  0.294700E+03
  0.105000E-02  0.500000E-04  0.156117E+03  0.105835E+01  0.270217E+24  0.125651E-01  0.310051E+03  0.302148E+03  0.295193E+03  0.115663E+04  0.434896E+00  0.430872E-05  0.111691E+09  0.150904E+32  0.000000E+00  0.000000E+00  0.000000E+00  0.000000E+00  0.100000E+01  0.310051E+03  0.302148E+03  0.295193E+03
  0.115000E-02  0.500000E-04  0.150914E+03  0.746878E+00  0.272843E+24  0.126872E-01  0.311564E+03  0.305628E+03  0.294774E+03  0.117357E+04  0.419375E+00  0.427245E-05  0.113289E+09  0.154551E+32  0.000000E+00  0.000000E+00  0.000000E+00  0.000000E+00  0.100000E+01  0.311564E+03  0.305628E+03  0.294774E+03
  0.125000E-02  0.500000E-04  0.153278E+03 -0.202131E+00  0.261572E+24  0.121631E-01  0.315074E+03  0.303941E+03  0.294315E+03  0.113777E+04  0.423560E+00  0.446904E-05  0.110158E+09  0.144072E+32  0.000000E+00  0.000000E+00  0.000000E+00  0.000000E+00  0.100000E+01  0.315074E+03  0.303941E+03  0.294315E+03
  0.135000E-02  0.500000E-04  0.153552E+03  0.375884E+01  0.256066E+24  0.119071E-01  0.317737E+03  0.308169E+03  0.294748E+03  0.112323E+04  0.422662E+00  0.457476E-05  0.106723E+09  0.136641E+32  0.000000E+00  0.000000E+00  0.000000E+00  0.000000E+00  0.100000E+01  0.317737E+03  0.308169E+03  0.294748E+03
  0.145000E-02  0.500000E-04  0.143966E+03  0.146481E+01  0.267727E+24  0.124493E-01  0.311990E+03  0.303733E+03  0.295256E+03  0.115314E+04  0.399810E+00  0.435558E-05  0.110864E+09  0.148406E+32  0.000000E+00  0.000000E+00  0.000000E+00  0.000000E+00  0.100000E+01  0.311990E+03  0.303733E+03  0.295256E+03
  0.155000E-02  0.500000E-04  0.138047E+03  0.776339E+00  0.271201E+24  0.126108E-01  0.309022E+03  0.302722E+03  0.295577E+03  0.115699E+04  0.385195E+00  0.428953E-05  0.112293E+09  0.152270E+32  0.000000E+00  0.000000E+00  0.000000E+00  0.000000E+00  0.100000E+01  0.309022E+03  0.302722E+03  0.295577E+03
  0.165000E-02  0.500000E-04  0.138382E+03 -0.651514E-01  0.263931E+24  0.122728E-01  0.308719E+03  0.300058E+03  0.295863E+03  0.112487E+04  0.386313E+00  0.440659E-05  0.109937E+09  0.145080E+32  0.000000E+00  0.000000E+00  0.000000E+00  0.000000E+00  0.100000E+01  0.308719E+03  0.300058E+03  0.295863E+03
  0.175000E-02  0.500000E-04  0.136977E+03 -0.966354E+00  0.264529E+24  0.123006E-01  0.306124E+03  0.301862E+03  0.296213E+03  0.111794E+04  0.384016E+00  0.438736E-05  0.109548E+09  0.144894E+32  0.000000E+00  0.000000E+00  0.000000E+00  0.000000E+00  0.100000E+01  0.306124E+03  0.301862E+03  0.296213E+03
  0.185000E-02  0.500000E-04  0.136495E+03  0.155269E+01  0.262374E+24  0.122004E-01  0.303008E+03  0.297394E+03  0.295035E+03  0.109755E+04  0.384643E+00  0.441211E-05  0.107919E+09  0.141576E+32  0.000000E+00  0.000000E+00  0.000000E+00  0.000000E+00  0.100000E+01  0.303008E+03  0.297394E+03  0.295035E+03
  0.195000E-02  0.500000E-04  0.137594E+03  0.162754E+01  0.260480E+24  0.121123E-01  0.306117E+03  0.297384E+03  0.294881E+03  0.110081E+04  0.385769E+00  0.445555E-05  0.107655E+09  0.140209E+32  0.000000E+00  0.000000E+00  0.000000E+00  0.000000E+00  0.100000E+01  0.306117E+03  0.297384E+03  0.294881E+03
  0.205000E-02  0.500000E-04  0.137635E+03  0.164377E+00  0.260624E+24  0.121190E-01  0.306689E+03  0.300256E+03  0.295214E+03  0.110347E+04  0.385497E+00  0.445516E-05  0.107463E+09  0.140037E+32  0.000000E+00  0.000000E+00  0.000000E+00  0.000000E+00  0.100000E+01  0.306689E+03  0.300256E+03  0.295214E+03
  0.215000E-02  0.500000E-04  0.132997E+03  0.167324E+01  0.265486E+24  0.123451E-01  0.303476E+03  0.299249E+03  0.296792E+03  0.111228E+04  0.374504E+00  0.436207E-05  0.109159E+09  0.144901E+32  0.000000E+00  0.000000E+00  0.000000E+00  0.000000E+00  0.100000E+01  0.303476E+03  0.299249E+03  0.296792E+03
  0.225000E-02  0.500000E-04  0.134789E+03 -0.146481E+01  0.261630E+24  0.121658E-01  0.304064E+03  0.300709E+03  0.295922E+03  0.109825E+04  0.379174E+00  0.442849E-05  0.107175E+09  0.140201E+32  0.000000E+00  0.000000E+00  0.000000E+00  0.000000E+00  0.100000E+01  0.304064E+03  0.300709E+03  0.295922E+03
  0.235000E-02  0.500000E-04  0.133588E+03  0.292415E+01  0.264239E+24  0.122871E-01  0.303997E+03  0.302026E+03  0.295497E+03  0.110896E+04  0.375905E+00  0.438454E-05  0.109081E+09  0.144117E+32  0.000000E+00  0.000000E+00  0.000000E+00  0.000000E+00  0.100000E+01  0.303997E+03  0.302026E+03  0.295497E+03
  0.245000E-02  0.500000E-04  0.131833E+03 -0.140365E+01  0.262807E+24  0.122205E-01  0.304641E+03  0.297670E+03  0.295990E+03  0.110528E+04  0.370507E+00  0.441075E-05  0.108137E+09  0.142096E+32  0.000000E+00  0.000000E+00  0.000000E+00  0.000000E+00  0.100000E+01  0.304641E+03  0.297670E+03  0.295990E+03
  0.255000E-02  0.500000E-04  0.130059E+03  0.165396E+01  0.260287E+24  0.121033E-01  0.305906E+03  0.299888E+03  0.296120E+03  0.109923E+04  0.364772E+00  0.445807E-05  0.107420E+09  0.139800E+32  0.000000E+00  0.000000E+00  0.000000E+00  0.000000E+00  0.100000E+01  0.305906E+03  0.299888E+03  0.296120E+03
  0.265000E-02  0.500000E-04  0.133758E+03  0.104466E+01  0.256387E+24  0.119220E-01  0.309831E+03  0.305807E+03  0.296510E+03  0.109666E+04  0.372744E+00  0.454033E-05  0.105844E+09  0.135686E+32  0.000000E+00  0.000000E+00  0.000000E+00  0.000000E+00  0.100000E+01  0.309831E+03  0.305807E+03  0.296510E+03
  0.275000E-02  0.500000E-04  0.134074E+03 -0.166130E+01  0.259248E+24  0.120550E-01  0.308591E+03  0.300577E+03  0.296695E+03  0.110446E+04  0.374393E+00  0.448573E-05  0.107541E+09  0.139399E+32  0.000000E+00  0.000000E+00  0.000000E+00  0.000000E+00  0.100000E+01  0.308591E+03  0.300577E+03  0.296695E+03
  0.285000E-02  0.500000E-04  0.130990E+03  0.347135E+01  0.263826E+24  0.122679E-01  0.307893E+03  0.302145E+03  0.296845E+03  0.112142E+04  0.366296E+00  0.440539E-05  0.109186E+09  0.144031E+32  0.000000E+00  0.000000E+00  0.000000E+00  0.000000E+00  0.100000E+01  0.307893E+03  0.302145E+03  0.296845E+03
  0.295000E-02  0.500000E-04  0.124522E+03  0.231217E+01  0.262162E+24  0.121905E-01  0.307336E+03  0.301533E+03  0.296087E+03  0.111233E+04  0.348463E+00  0.443135E-05  0.108397E+09  0.142088E+32  0.000000E+00  0.000000E+00  0.000000E+00  0.000000E+00  0.100000E+01  0.307336E+03  0.301533E+03  0.296087E+03
  0.305000E-02  0.500000E-04  0.124553E+03  0.815708E+00  0.258379E+24  0.120146E-01  0.308361E+03  0.305010E+03  0.295404E+03  0.109993E+04  0.347916E+00  0.449998E-05  0.105904E+09  0.136817E+32  0.000000E+00  0.000000E+00  0.000000E+00  0.000000E+00  0.100000E+01  0.308361E+03  0.305010E+03  0.295404E+03
  0.315000E-02  0.500000E-04  0.122046E+03 -0.184814E+00  0.251296E+24  0.116852E-01  0.308365E+03  0.305279E+03  0.296292E+03  0.106979E+04  0.340905E+00  0.462684E-05  0.104109E+09  0.130811E+32  0.000000E+00  0.000000E+00  0.000000E+00  0.000000E+00  0.100000E+01  0.308365E+03  0.305279E+03  0.296292E+03
  0.325000E-02  0.500000E-04  0.126034E+03  0.371916E+00  0.248568E+24  0.115584E-01  0.308429E+03  0.299667E+03  0.295331E+03  0.105840E+04  0.352009E+00  0.467786E-05  0.103330E+09  0.128423E+32  0.000000E+00  0.000000E+00  0.000000E+00  0.000000E+00  0.100000E+01  0.308429E+03  0.299667E+03  0.295331E+03
  0.335000E-02  0.500000E-04  0.123865E+03  0.105427E+01  0.251900E+24  0.117134E-01  0.309029E+03  0.300897E+03  0.296038E+03  0.107468E+04  0.345624E+00  0.461821E-05  0.104222E+09  0.131267E+32  0.000000E+00  0.000000E+00  0.000000E+00  0.000000E+00  0.100000E+01  0.309029E+03  0.300897E+03  0.296038E+03
  0.345000E-02  0.500000E-04  0.123969E+03 -0.190807E+00  0.251997E+24  0.117179E-01  0.306678E+03  0.303127E+03  0.295564E+03  0.106691E+04  0.347226E+00  0.460764E-05  0.104394E+09  0.131535E+32  0.000000E+00  0.000000E+00  0.000000E+00  0.000000E+00  0.100000E+01  0.306678E+03  0.303127E+03  0.295564E+03
  0.355000E-02  0.500000E-04  0.120494E+03  0.680473E-01  0.260022E+24  0.120910E-01  0.306457E+03  0.299886E+03  0.295802E+03  0.110009E+04  0.337614E+00  0.446462E-05  0.107884E+09  0.140261E+32  0.000000E+00  0.000000E+00  0.000000E+00  0.000000E+00  0.100000E+01  0.306457E+03  0.299886E+03  0.295802E+03
  0.365000E-02  0.500000E-04  0.122285E+03  0.301750E+00  0.253121E+24  0.117701E-01  0.306389E+03  0.299040E+03  0.294809E+03  0.107066E+04  0.342671E+00  0.458610E-05  0.104944E+09  0.132817E+32  0.000000E+00  0.000000E+00  0.000000E+00  0.000000E+00  0.100000E+01  0.306389E+03  0.299040E+03  0.294809E+03
  0.375000E-02  0.500000E-04  0.115994E+03  0.611518E+00  0.256951E+24  0.119482E-01  0.304200E+03  0.301040E+03  0.295129E+03  0.107909E+04  0.326214E+00  0.450965E-05  0.106291E+09  0.136558E+32  0.000000E+00  0.000000E+00  0.000000E+00  0.000000E+00  0.100000E+01  0.304200E+03  0.301040E+03  0.295129E+03
  0.385000E-02  0.500000E-04  0.113809E+03  0.583855E+01  0.255624E+24  0.118865E-01  0.305932E+03  0.301226E+03  0.296391E+03  0.107963E+04  0.319576E+00  0.453949E-05  0.105358E+09  0.134661E+32  0.000000E+00  0.000000E+00  0.000000E+00  0.000000E+00  0.100000E+01  0.305932E+03  0.301226E+03  0.296391E+03
  0.395000E-02  0.500000E-04  0.107462E+03  0.956660E+00  0.256348E+24  0.119202E-01  0.301689E+03  0.296166E+03  0.296011E+03  0.106767E+04  0.303484E+00  0.451089E-05  0.106228E+09  0.136156E+32  0.000000E+00  0.000000E+00  0.000000E+00  0.000000E+00  0.100000E+01  0.301689E+03  0.296166E+03  0.296011E+03
  0.405000E-02  0.500000E-04  0.108471E+03  0.256145E+01  0.250356E+24  0.116416E-01  0.306030E+03  0.302208E+03  0.295974E+03  0.105772E+04  0.304223E+00  0.463538E-05  0.103576E+09  0.129655E+32  0.000000E+00  0.000000E+00  0.000000E+00  0.000000E+00  0.100000E+01  0.306030E+03  0.302208E+03  0.295974E+03
  0.415000E-02  0.500000E-04  0.107964E+03 -0.130109E+00  0.249732E+24  0.116125E-01  0.304766E+03  0.301602E+03  0.297076E+03  0.105072E+04  0.303345E+00  0.464216E-05  0.102706E+09  0.128245E+32  0.000000E+00  0.000000E+00  0.000000E+00  0.000000E+00  0.100000E+01  0.304766E+03  0.301602E+03  0.297076E+03
  0.425000E-02  0.500000E-04  0.112465E+03 -0.123468E+01  0.246510E+24  0.114627E-01  0.308650E+03  0.305365E+03  0.297194E+03  0.105039E+04  0.314016E+00  0.471774E-05  0.102534E+09  0.126379E+32  0.000000E+00  0.000000E+00  0.000000E+00  0.000000E+00  0.100000E+01  0.308650E+03  0.305365E+03  0.297194E+03
  0.435000E-02  0.500000E-04  0.111715E+03  0.129435E+01  0.245641E+24  0.114223E-01  0.306306E+03  0.302419E+03  0.297003E+03  0.103874E+04  0.313114E+00  0.472543E-05  0.102455E+09  0.125835E+32  0.000000E+00  0.000000E+00  0.000000E+00  0.000000E+00  0.100000E+01  0.306306E+03  0.302419E+03  0.297003E+03
  0.445000E-02  0.500000E-04  0.112511E+03 -0.110261E+01  0.243158E+24  0.113069E-01  0.307882E+03  0.303473E+03  0.297007E+03  0.103353E+04  0.314531E+00  0.477980E-05  0.100653E+09  0.122373E+32  0.000000E+00  0.000000E+00  0.000000E+00  0.000000E+00  0.100000E+01  0.307882E+03  0.303473E+03  0.297007E+03
  0.455000E-02  0.500000E-04  0.110493E+03 -0.156831E+00  0.246874E+24  0.114797E-01  0.306307E+03  0.299610E+03  0.296017E+03  0.104396E+04  0.309668E+00  0.470182E-05  0.101972E+09  0.125872E+32  0.000000E+00  0.000000E+00  0.000000E+00  0.000000E+00  0.100000E+01  0.306307E+03  0.299610E+03  0.296017E+03
  0.465000E-02  0.500000E-04  0.115583E+03  0.315693E+00  0.241502E+24  0.112298E-01  0.308501E+03  0.303403E+03  0.295778E+03  0.102855E+04  0.322781E+00  0.481500E-05  0.100537E+09  0.121399E+32  0.000000E+00  0.000000E+00  0.000000E+00  0.000000E+00  0.100000E+01  0.308501E+03  0.303403E+03  0.295778E+03
  0.475000E-02  0.500000E-04  0.113481E+03 -0.206565E+01  0.242698E+24  0.112855E-01  0.305067E+03  0.303053E+03  0.296197E+03  0.102214E+04  0.318741E+00  0.477788E-05  0.100131E+09  0.121508E+32  0.000000E+00  0.000000E+00  0.000000E+00  0.000000E+00  0.100000E+01  0.305067E+03  0.303053E+03  0.296197E+03
  0.485000E-02  0.500000E-04  0.113272E+03  0.481069E+01  0.241371E+24  0.112238E-01  0.306273E+03  0.301334E+03  0.296169E+03  0.102057E+04  0.317762E+00  0.480889E-05  0.998196E+08  0.120468E+32  0.000000E+00  0.000000E+00  0.000000E+00  0.000000E+00  0.100000E+01  0.306273E+03  0.301334E+03  0.296169E+03
  0.495000E-02  0.500000E-04  0.112768E+03 -0.370654E+01  0.245138E+24  0.113989E-01  0.302667E+03  0.297950E+03  0.296536E+03  0.102429E+04  0.318111E+00  0.472100E-05  0.101092E+09  0.123908E+32  0.000000E+00  0.000000E+00  0.000000E+00  0.000000E+00  0.100000E+01  0.302667E+03  0.297950E+03  0.296536E+03
  0.505000E-02  0.500000E-04  0.110941E+03 -0.229738E+01  0.252442E+24  0.117385E-01  0.297173E+03  0.292047E+03  0.295684E+03  0.103567E+04  0.315734E+00  0.456346E-05  0.103528E+09  0.130674E+32  0.000000E+00  0.000000E+00  0.000000E+00  0.000000E+00  0.100000E+01  0.297173E+03  0.292047E+03  0.295684E+03
  0.515000E-02  0.500000E-04  0.111596E+03  0.265424E+01  0.251422E+24  0.116911E-01  0.300997E+03  0.293913E+03  0.297151E+03  0.104475E+04  0.315597E+00  0.459664E-05  0.103720E+09  0.130387E+32  0.000000E+00  0.000000E+00  0.000000E+00  0.000000E+00  0.100000E+01  0.300997E+03  0.293913E+03  0.297151E+03
  0.525000E-02  0.500000E-04  0.109202E+03 -0.116658E+01  0.255433E+24  0.118776E-01  0.299341E+03  0.297062E+03  0.296096E+03  0.105558E+04  0.309609E+00  0.451823E-05  0.104900E+09  0.133975E+32  0.000000E+00  0.000000E+00  0.000000E+00  0.000000E+00  0.100000E+01  0.299341E+03  0.297062E+03  0.296096E+03
  0.535000E-02  0.500000E-04  0.104640E+03  0.532654E+01  0.254850E+24  0.118505E-01  0.303078E+03  0.299634E+03  0.296513E+03  0.106632E+04  0.295204E+00  0.454262E-05  0.105613E+09  0.134577E+32  0.000000E+00  0.000000E+00  0.000000E+00  0.000000E+00  0.100000E+01  0.303078E+03  0.299634E+03  0.296513E+03
  0.545000E-02  0.500000E-04  0.104992E+03 -0.295382E+01  0.247833E+24  0.115243E-01  0.299927E+03  0.294736E+03  0.297379E+03  0.102618E+04  0.297484E+00  0.465904E-05  0.102416E+09  0.126911E+32  0.000000E+00  0.000000E+00  0.000000E+00  0.000000E+00  0.100000E+01  0.299927E+03  0.294736E+03  0.297379E+03