TITLE=" Box                                                                     /                                                                         "
VARIABLES="X",        "Y",      "Vx   ",      "Vy   ",      "Nden ",      "Rho  ",      "Ttrn ",      "Trot ",      "Tvib ",      "Press",      "Ma   ",      "Lambd",      "Relac",      "Coll ",      "frac1",      "Ttrn1",      "Trot1",      "Tvib1",      "frac2",      "Ttrn2",      "Trot2",      "Tvib2"
ZONE T="DSMC,BG", I=  200, J=   50, F=POINT
 -0.395000E-02  0.500000E-04  0.802400E+03  0.251440E+02  0.128490E+25  0.597479E-01  0.100296E+03  0.840727E+02  0.232976E+03  0.177911E+04  0.393187E+01  0.683368E-06  0.384607E+09  0.247091E+33  0.000000E+00  0.000000E+00  0.000000E+00  0.000000E+00  0.100000E+01  0.100296E+03  0.840727E+02  0.232976E+03
 -0.385000E-02  0.500000E-04  0.740863E+03  0.680310E+02  0.139118E+25  0.646900E-01  0.144345E+03  0.116287E+03  0.245694E+03  0.277227E+04  0.303737E+01  0.691304E-06  0.477119E+09  0.331880E+33  0.000000E+00  0.000000E+00  0.000000E+00  0.000000E+00  0.100000E+01  0.144345E+03  0.116287E+03  0.245694E+03
 -0.375000E-02  0.500000E-04  0.711916E+03  0.898471E+02  0.138612E+25  0.644546E-01  0.160856E+03  0.130817E+03  0.250350E+03  0.307813E+04  0.277511E+01  0.712872E-06  0.530546E+09  0.367700E+33  0.000000E+00  0.000000E+00  0.000000E+00  0.000000E+00  0.100000E+01  0.160856E+03  0.130817E+03  0.250350E+03
 -0.365000E-02  0.500000E-04  0.674852E+03  0.743755E+02  0.111281E+25  0.517458E-01  0.184635E+03  0.148401E+03  0.257313E+03  0.283652E+04  0.245082E+01  0.919093E-06  0.460282E+09  0.256104E+33  0.000000E+00  0.000000E+00  0.000000E+00  0.000000E+00  0.100000E+01  0.184635E+03  0.148401E+03  0.257313E+03
 -0.355000E-02  0.500000E-04  0.627403E+03  0.530261E+02  0.861059E+24  0.400393E-01  0.211915E+03  0.170289E+03  0.264213E+03  0.251910E+04  0.212153E+01  0.122945E-05  0.357219E+09  0.153793E+33  0.000000E+00  0.000000E+00  0.000000E+00  0.000000E+00  0.100000E+01  0.211915E+03  0.170289E+03  0.264213E+03
 -0.345000E-02  0.500000E-04  0.580387E+03  0.382778E+02  0.712998E+24  0.331544E-01  0.235351E+03  0.190504E+03  0.269702E+03  0.231661E+04  0.185969E+01  0.152421E-05  0.292688E+09  0.104343E+33  0.000000E+00  0.000000E+00  0.000000E+00  0.000000E+00  0.100000E+01  0.235351E+03  0.190504E+03  0.269702E+03
 -0.335000E-02  0.500000E-04  0.535735E+03  0.307117E+02  0.618041E+24  0.287389E-01  0.253615E+03  0.208053E+03  0.274495E+03  0.216392E+04  0.165278E+01  0.179155E-05  0.251715E+09  0.777853E+32  0.000000E+00  0.000000E+00  0.000000E+00  0.000000E+00  0.100000E+01  0.253615E+03  0.208053E+03  0.274495E+03
 -0.325000E-02  0.500000E-04  0.501685E+03  0.236966E+02  0.546723E+24  0.254226E-01  0.266605E+03  0.221885E+03  0.277525E+03  0.201226E+04  0.150876E+01  0.205070E-05  0.224207E+09  0.612896E+32  0.000000E+00  0.000000E+00  0.000000E+00  0.000000E+00  0.100000E+01  0.266605E+03  0.221885E+03  0.277525E+03
 -0.315000E-02  0.500000E-04  0.467522E+03  0.185613E+02  0.498673E+24  0.231883E-01  0.276606E+03  0.235133E+03  0.280283E+03  0.190426E+04  0.137992E+01  0.226910E-05  0.203209E+09  0.506674E+32  0.000000E+00  0.000000E+00  0.000000E+00  0.000000E+00  0.100000E+01  0.276606E+03  0.235133E+03  0.280283E+03
 -0.305000E-02  0.500000E-04  0.444332E+03  0.143953E+02  0.459346E+24  0.213596E-01  0.281198E+03  0.241396E+03  0.282201E+03  0.178321E+04  0.130038E+01  0.247352E-05  0.186429E+09  0.428178E+32  0.000000E+00  0.000000E+00  0.000000E+00  0.000000E+00  0.100000E+01  0.281198E+03  0.241396E+03  0.282201E+03
 -0.295000E-02  0.500000E-04  0.418826E+03  0.117691E+02  0.437375E+24  0.203380E-01  0.288181E+03  0.249919E+03  0.283962E+03  0.174008E+04  0.121063E+01  0.261376E-05  0.177656E+09  0.388512E+32  0.000000E+00  0.000000E+00  0.000000E+00  0.000000E+00  0.100000E+01  0.288181E+03  0.249919E+03  0.283962E+03
 -0.285000E-02  0.500000E-04  0.399187E+03  0.119283E+02  0.414145E+24  0.192577E-01  0.292048E+03  0.257402E+03  0.285252E+03  0.166977E+04  0.114626E+01  0.276958E-05  0.168181E+09  0.348256E+32  0.000000E+00  0.000000E+00  0.000000E+00  0.000000E+00  0.100000E+01  0.292048E+03  0.257402E+03  0.285252E+03
 -0.275000E-02  0.500000E-04  0.374393E+03  0.116987E+02  0.401829E+24  0.186851E-01  0.296567E+03  0.263158E+03  0.286649E+03  0.164518E+04  0.106689E+01  0.286544E-05  0.163208E+09  0.327908E+32  0.000000E+00  0.000000E+00  0.000000E+00  0.000000E+00  0.100000E+01  0.296567E+03  0.263158E+03  0.286649E+03
 -0.265000E-02  0.500000E-04  0.356351E+03  0.823299E+01  0.385526E+24  0.179269E-01  0.300004E+03  0.270123E+03  0.287651E+03  0.159672E+04  0.100942E+01  0.299524E-05  0.157167E+09  0.302959E+32  0.000000E+00  0.000000E+00  0.000000E+00  0.000000E+00  0.100000E+01  0.300004E+03  0.270123E+03  0.287651E+03
 -0.255000E-02  0.500000E-04  0.337507E+03  0.912268E+01  0.375871E+24  0.174780E-01  0.301055E+03  0.272799E+03  0.288088E+03  0.156219E+04  0.954463E+00  0.307486E-05  0.153535E+09  0.288548E+32  0.000000E+00  0.000000E+00  0.000000E+00  0.000000E+00  0.100000E+01  0.301055E+03  0.272799E+03  0.288088E+03
 -0.245000E-02  0.500000E-04  0.325665E+03  0.623248E+01  0.362441E+24  0.168535E-01  0.302076E+03  0.273616E+03  0.288231E+03  0.151148E+04  0.919248E+00  0.319150E-05  0.147840E+09  0.267916E+32  0.000000E+00  0.000000E+00  0.000000E+00  0.000000E+00  0.100000E+01  0.302076E+03  0.273616E+03  0.288231E+03
 -0.235000E-02  0.500000E-04  0.315454E+03  0.614598E+01  0.353004E+24  0.164147E-01  0.302863E+03  0.276635E+03  0.289142E+03  0.147596E+04  0.889274E+00  0.327895E-05  0.144377E+09  0.254829E+32  0.000000E+00  0.000000E+00  0.000000E+00  0.000000E+00  0.100000E+01  0.302863E+03  0.276635E+03  0.289142E+03
 -0.225000E-02  0.500000E-04  0.300205E+03  0.640764E+01  0.349481E+24  0.162509E-01  0.305937E+03  0.282069E+03  0.289591E+03  0.147606E+04  0.842057E+00  0.332038E-05  0.143261E+09  0.250335E+32  0.000000E+00  0.000000E+00  0.000000E+00  0.000000E+00  0.100000E+01  0.305937E+03  0.282069E+03  0.289591E+03
 -0.215000E-02  0.500000E-04  0.293073E+03  0.318886E+01  0.337905E+24  0.157126E-01  0.305804E+03  0.280752E+03  0.289539E+03  0.142655E+04  0.822091E+00  0.343375E-05  0.138522E+09  0.234037E+32  0.000000E+00  0.000000E+00  0.000000E+00  0.000000E+00  0.100000E+01  0.305804E+03  0.280752E+03  0.289539E+03
 -0.205000E-02  0.500000E-04  0.281935E+03  0.509598E+01  0.332898E+24  0.154798E-01  0.306792E+03  0.287072E+03  0.290509E+03  0.140995E+04  0.789658E+00  0.348821E-05  0.136028E+09  0.226417E+32  0.000000E+00  0.000000E+00  0.000000E+00  0.000000E+00  0.100000E+01  0.306792E+03  0.287072E+03  0.290509E+03
 -0.195000E-02  0.500000E-04  0.274293E+03  0.428517E+01  0.322815E+24  0.150109E-01  0.309158E+03  0.287784E+03  0.290827E+03  0.137779E+04  0.765275E+00  0.360408E-05  0.133129E+09  0.214880E+32  0.000000E+00  0.000000E+00  0.000000E+00  0.000000E+00  0.100000E+01  0.309158E+03  0.287784E+03  0.290827E+03
 -0.185000E-02  0.500000E-04  0.264792E+03  0.314903E+01  0.320232E+24  0.148908E-01  0.308363E+03  0.287914E+03  0.290851E+03  0.136325E+04  0.739683E+00  0.363081E-05  0.131852E+09  0.211116E+32  0.000000E+00  0.000000E+00  0.000000E+00  0.000000E+00  0.100000E+01  0.308363E+03  0.287914E+03  0.290851E+03
 -0.175000E-02  0.500000E-04  0.259472E+03  0.222934E+01  0.313575E+24  0.145812E-01  0.306562E+03  0.288811E+03  0.291224E+03  0.132712E+04  0.726923E+00  0.370246E-05  0.128993E+09  0.202244E+32  0.000000E+00  0.000000E+00  0.000000E+00  0.000000E+00  0.100000E+01  0.306562E+03  0.288811E+03  0.291224E+03
 -0.165000E-02  0.500000E-04  0.250175E+03  0.314701E+01  0.314025E+24  0.146022E-01  0.310787E+03  0.291745E+03  0.291157E+03  0.134734E+04  0.696125E+00  0.370983E-05  0.129333E+09  0.203070E+32  0.000000E+00  0.000000E+00  0.000000E+00  0.000000E+00  0.100000E+01  0.310787E+03  0.291745E+03  0.291157E+03
 -0.155000E-02  0.500000E-04  0.245431E+03  0.494723E+01  0.307155E+24  0.142827E-01  0.309974E+03  0.292792E+03  0.291683E+03  0.131441E+04  0.683903E+00  0.379033E-05  0.126265E+09  0.193914E+32  0.000000E+00  0.000000E+00  0.000000E+00  0.000000E+00  0.100000E+01  0.309974E+03  0.292792E+03  0.291683E+03
 -0.145000E-02  0.500000E-04  0.238279E+03  0.227045E+01  0.306618E+24  0.142577E-01  0.308681E+03  0.291279E+03  0.292041E+03  0.130664E+04  0.665260E+00  0.379300E-05  0.125760E+09  0.192802E+32  0.000000E+00  0.000000E+00  0.000000E+00  0.000000E+00  0.100000E+01  0.308681E+03  0.291279E+03  0.292041E+03
 -0.135000E-02  0.500000E-04  0.237941E+03  0.110828E+01  0.297086E+24  0.138145E-01  0.310528E+03  0.291888E+03  0.292091E+03  0.127360E+04  0.662314E+00  0.392054E-05  0.122580E+09  0.182084E+32  0.000000E+00  0.000000E+00  0.000000E+00  0.000000E+00  0.100000E+01  0.310528E+03  0.291888E+03  0.292091E+03
 -0.125000E-02  0.500000E-04  0.234479E+03  0.411720E+00  0.293715E+24  0.136578E-01  0.311589E+03  0.295669E+03  0.291970E+03  0.126345E+04  0.651559E+00  0.396891E-05  0.121281E+09  0.178111E+32  0.000000E+00  0.000000E+00  0.000000E+00  0.000000E+00  0.100000E+01  0.311589E+03  0.295669E+03  0.291970E+03
 -0.115000E-02  0.500000E-04  0.230677E+03  0.225189E+01  0.293554E+24  0.136503E-01  0.310158E+03  0.296470E+03  0.292707E+03  0.125696E+04  0.642501E+00  0.396653E-05  0.121149E+09  0.177819E+32  0.000000E+00  0.000000E+00  0.000000E+00  0.000000E+00  0.100000E+01  0.310158E+03  0.296470E+03  0.292707E+03
 -0.105000E-02  0.500000E-04  0.224356E+03  0.474685E+01  0.292569E+24  0.136044E-01  0.309121E+03  0.293187E+03  0.292513E+03  0.124855E+04  0.626053E+00  0.397656E-05  0.120378E+09  0.176094E+32  0.000000E+00  0.000000E+00  0.000000E+00  0.000000E+00  0.100000E+01  0.309121E+03  0.293187E+03  0.292513E+03
 -0.950000E-03  0.500000E-04  0.217981E+03  0.627200E+00  0.291538E+24  0.135565E-01  0.307737E+03  0.293808E+03  0.292623E+03  0.123858E+04  0.609496E+00  0.398615E-05  0.120622E+09  0.175829E+32  0.000000E+00  0.000000E+00  0.000000E+00  0.000000E+00  0.100000E+01  0.307737E+03  0.293808E+03  0.292623E+03
 -0.850000E-03  0.500000E-04  0.216278E+03  0.195293E+01  0.285988E+24  0.132984E-01  0.309027E+03  0.297503E+03  0.293290E+03  0.122009E+04  0.603494E+00  0.406775E-05  0.118107E+09  0.168887E+32  0.000000E+00  0.000000E+00  0.000000E+00  0.000000E+00  0.100000E+01  0.309027E+03  0.297503E+03  0.293290E+03
 -0.750000E-03  0.500000E-04  0.211153E+03  0.134060E+01  0.284855E+24  0.132458E-01  0.309505E+03  0.295951E+03  0.293724E+03  0.121714E+04  0.588724E+00  0.408550E-05  0.117721E+09  0.167667E+32  0.000000E+00  0.000000E+00  0.000000E+00  0.000000E+00  0.100000E+01  0.309505E+03  0.295951E+03  0.293724E+03
 -0.650000E-03  0.500000E-04  0.208664E+03  0.326037E+01  0.281556E+24  0.130923E-01  0.308187E+03  0.294412E+03  0.293913E+03  0.119792E+04  0.583087E+00  0.412897E-05  0.115701E+09  0.162882E+32  0.000000E+00  0.000000E+00  0.000000E+00  0.000000E+00  0.100000E+01  0.308187E+03  0.294412E+03  0.293913E+03
 -0.550000E-03  0.500000E-04  0.203851E+03  0.302902E+00  0.281895E+24  0.131081E-01  0.308921E+03  0.294162E+03  0.294120E+03  0.120222E+04  0.568893E+00  0.412645E-05  0.116090E+09  0.163627E+32  0.000000E+00  0.000000E+00  0.000000E+00  0.000000E+00  0.100000E+01  0.308921E+03  0.294162E+03  0.294120E+03
 -0.450000E-03  0.500000E-04  0.202315E+03 -0.861763E-01  0.282701E+24  0.131456E-01  0.305656E+03  0.293262E+03  0.293862E+03  0.119291E+04  0.567613E+00  0.410378E-05  0.116787E+09  0.165079E+32  0.000000E+00  0.000000E+00  0.000000E+00  0.000000E+00  0.100000E+01  0.305656E+03  0.293262E+03  0.293862E+03
 -0.350000E-03  0.500000E-04  0.203390E+03  0.140355E+01  0.279381E+24  0.129912E-01  0.307000E+03  0.295580E+03  0.294351E+03  0.118409E+04  0.569393E+00  0.415710E-05  0.115226E+09  0.160960E+32  0.000000E+00  0.000000E+00  0.000000E+00  0.000000E+00  0.100000E+01  0.307000E+03  0.295580E+03  0.294351E+03
 -0.250000E-03  0.500000E-04  0.198008E+03  0.203705E+01  0.281884E+24  0.131076E-01  0.306602E+03  0.295356E+03  0.294022E+03  0.119315E+04  0.554702E+00  0.411885E-05  0.116306E+09  0.163924E+32  0.000000E+00  0.000000E+00  0.000000E+00  0.000000E+00  0.100000E+01  0.306602E+03  0.295356E+03  0.294022E+03
 -0.150000E-03  0.500000E-04  0.194617E+03  0.293557E+01  0.276454E+24  0.128551E-01  0.309957E+03  0.295672E+03  0.294130E+03  0.118297E+04  0.542275E+00  0.421119E-05  0.113733E+09  0.157210E+32  0.000000E+00  0.000000E+00  0.000000E+00  0.000000E+00  0.100000E+01  0.309957E+03  0.295672E+03  0.294130E+03
 -0.499999E-04  0.500000E-04  0.191347E+03 -0.179120E+01  0.276850E+24  0.128735E-01  0.310169E+03  0.299641E+03  0.294207E+03  0.118547E+04  0.532946E+00  0.420590E-05  0.114699E+09  0.158771E+32  0.000000E+00  0.000000E+00  0.000000E+00  0.000000E+00  0.100000E+01  0.310169E+03  0.299641E+03  0.294207E+03
  0.499999E-04  0.500000E-04  0.184747E+03  0.269004E+01  0.278124E+24  0.129328E-01  0.309445E+03  0.299620E+03  0.294062E+03  0.118815E+04  0.515196E+00  0.418417E-05  0.115141E+09  0.160118E+32  0.000000E+00  0.000000E+00  0.000000E+00  0.000000E+00  0.100000E+01  0.309445E+03  0.299620E+03  0.294062E+03
  0.150000E-03  0.500000E-04  0.183650E+03  0.188677E+01  0.269503E+24  0.125319E-01  0.310269E+03  0.300080E+03  0.294578E+03  0.115439E+04  0.511430E+00  0.432090E-05  0.111757E+09  0.150594E+32  0.000000E+00  0.000000E+00  0.000000E+00  0.000000E+00  0.100000E+01  0.310269E+03  0.300080E+03  0.294578E+03
  0.250000E-03  0.500000E-04  0.179858E+03  0.134122E+01  0.267935E+24  0.124590E-01  0.308941E+03  0.298565E+03  0.294510E+03  0.114276E+04  0.501932E+00  0.434153E-05  0.110506E+09  0.148041E+32  0.000000E+00  0.000000E+00  0.000000E+00  0.000000E+00  0.100000E+01  0.308941E+03  0.298565E+03  0.294510E+03
  0.350000E-03  0.500000E-04  0.176890E+03  0.857643E+00  0.268253E+24  0.124738E-01  0.309061E+03  0.298829E+03  0.294022E+03  0.114456E+04  0.493545E+00  0.433680E-05  0.110902E+09  0.148749E+32  0.000000E+00  0.000000E+00  0.000000E+00  0.000000E+00  0.100000E+01  0.309061E+03  0.298829E+03  0.294022E+03
  0.450000E-03  0.500000E-04  0.175420E+03  0.124924E+01  0.267051E+24  0.124179E-01  0.309785E+03  0.299111E+03  0.293981E+03  0.114210E+04  0.488879E+00  0.435886E-05  0.111022E+09  0.148242E+32  0.000000E+00  0.000000E+00  0.000000E+00  0.000000E+00  0.100000E+01  0.309785E+03  0.299111E+03  0.293981E+03
  0.550000E-03  0.500000E-04  0.176319E+03 -0.122062E+01  0.260110E+24  0.120951E-01  0.311003E+03  0.300844E+03  0.293808E+03  0.111679E+04  0.490421E+00  0.447958E-05  0.107413E+09  0.139697E+32  0.000000E+00  0.000000E+00  0.000000E+00  0.000000E+00  0.100000E+01  0.311003E+03  0.300844E+03  0.293808E+03
  0.650000E-03  0.500000E-04  0.175510E+03  0.711745E+00  0.257857E+24  0.119904E-01  0.309263E+03  0.299573E+03  0.294348E+03  0.110092E+04  0.489534E+00  0.451237E-05  0.106884E+09  0.137804E+32  0.000000E+00  0.000000E+00  0.000000E+00  0.000000E+00  0.100000E+01  0.309263E+03  0.299573E+03  0.294348E+03
  0.750000E-03  0.500000E-04  0.175684E+03  0.134132E+01  0.256883E+24  0.119451E-01  0.310000E+03  0.301025E+03  0.294604E+03  0.109937E+04  0.489446E+00  0.453219E-05  0.106488E+09  0.136775E+32  0.000000E+00  0.000000E+00  0.000000E+00  0.000000E+00  0.100000E+01  0.310000E+03  0.301025E+03  0.294604E+03
  0.850000E-03  0.500000E-04  0.173894E+03 -0.199154E+01  0.255989E+24  0.119035E-01  0.310476E+03  0.302229E+03  0.294384E+03  0.109723E+04  0.484106E+00  0.454975E-05  0.105942E+09  0.135600E+32  0.000000E+00  0.000000E+00  0.000000E+00  0.000000E+00  0.100000E+01  0.310476E+03  0.302229E+03  0.294384E+03
  0.950000E-03  0.500000E-04  0.171604E+03  0.229067E+00  0.261375E+24  0.121540E-01  0.307686E+03  0.299297E+03  0.294432E+03  0.111025E+04  0.479860E+00  0.444596E-05  0.108129E+09  0.141311E+32  0.000000E+00  0.000000E+00  0.000000E+00  0.000000E+00  0.100000E+01  0.307686E+03  0.299297E+03  0.294432E+03
  0.105000E-02  0.500000E-04  0.172062E+03  0.244748E+01  0.260066E+24  0.120931E-01  0.307096E+03  0.298334E+03  0.294394E+03  0.110257E+04  0.481653E+00  0.446620E-05  0.107662E+09  0.139996E+32  0.000000E+00  0.000000E+00  0.000000E+00  0.000000E+00  0.100000E+01  0.307096E+03  0.298334E+03  0.294394E+03
  0.115000E-02  0.500000E-04  0.169144E+03 -0.154552E+00  0.258137E+24  0.120034E-01  0.306503E+03  0.300651E+03  0.294615E+03  0.109228E+04  0.473895E+00  0.449740E-05  0.106205E+09  0.137078E+32  0.000000E+00  0.000000E+00  0.000000E+00  0.000000E+00  0.100000E+01  0.306503E+03  0.300651E+03  0.294615E+03
  0.125000E-02  0.500000E-04  0.170509E+03  0.280116E+00  0.256476E+24  0.119261E-01  0.309233E+03  0.300844E+03  0.294263E+03  0.109492E+04  0.475603E+00  0.453656E-05  0.106294E+09  0.136309E+32  0.000000E+00  0.000000E+00  0.000000E+00  0.000000E+00  0.100000E+01  0.309233E+03  0.300844E+03  0.294263E+03
  0.135000E-02  0.500000E-04  0.166993E+03  0.886387E+00  0.260925E+24  0.121330E-01  0.306473E+03  0.300088E+03  0.294701E+03  0.110397E+04  0.467896E+00  0.444923E-05  0.108223E+09  0.141191E+32  0.000000E+00  0.000000E+00  0.000000E+00  0.000000E+00  0.100000E+01  0.306473E+03  0.300088E+03  0.294701E+03
  0.145000E-02  0.500000E-04  0.165493E+03 -0.169121E+01  0.260331E+24  0.121054E-01  0.307764E+03  0.300231E+03  0.294663E+03  0.110609E+04  0.462736E+00  0.446408E-05  0.108229E+09  0.140877E+32  0.000000E+00  0.000000E+00  0.000000E+00  0.000000E+00  0.100000E+01  0.307764E+03  0.300231E+03  0.294663E+03
  0.155000E-02  0.500000E-04  0.161860E+03  0.256220E+01  0.260440E+24  0.121105E-01  0.309675E+03  0.302035E+03  0.294986E+03  0.111343E+04  0.451214E+00  0.446912E-05  0.107988E+09  0.140622E+32  0.000000E+00  0.000000E+00  0.000000E+00  0.000000E+00  0.100000E+01  0.309675E+03  0.302035E+03  0.294986E+03
  0.165000E-02  0.500000E-04  0.157906E+03  0.202869E+01  0.257005E+24  0.119507E-01  0.307937E+03  0.300192E+03  0.295372E+03  0.109258E+04  0.441411E+00  0.452248E-05  0.106393E+09  0.136717E+32  0.000000E+00  0.000000E+00  0.000000E+00  0.000000E+00  0.100000E+01  0.307937E+03  0.300192E+03  0.295372E+03
  0.175000E-02  0.500000E-04  0.156338E+03  0.100740E+01  0.254478E+24  0.118332E-01  0.308185E+03  0.300454E+03  0.295714E+03  0.108271E+04  0.436828E+00  0.456830E-05  0.105415E+09  0.134129E+32  0.000000E+00  0.000000E+00  0.000000E+00  0.000000E+00  0.100000E+01  0.308185E+03  0.300454E+03  0.295714E+03
  0.185000E-02  0.500000E-04  0.156760E+03 -0.672771E+00  0.257084E+24  0.119544E-01  0.305819E+03  0.298029E+03  0.295718E+03  0.108539E+04  0.439690E+00  0.451330E-05  0.106337E+09  0.136687E+32  0.000000E+00  0.000000E+00  0.000000E+00  0.000000E+00  0.100000E+01  0.305819E+03  0.298029E+03  0.295718E+03
  0.195000E-02  0.500000E-04  0.155721E+03  0.140041E+01  0.254559E+24  0.118370E-01  0.308380E+03  0.300997E+03  0.295900E+03  0.108373E+04  0.434972E+00  0.456758E-05  0.104942E+09  0.133570E+32  0.000000E+00  0.000000E+00  0.000000E+00  0.000000E+00  0.100000E+01  0.308380E+03  0.300997E+03  0.295900E+03
  0.205000E-02  0.500000E-04  0.153368E+03  0.226734E+00  0.253712E+24  0.117976E-01  0.307734E+03  0.299734E+03  0.295768E+03  0.107787E+04  0.428834E+00  0.458042E-05  0.105084E+09  0.133306E+32  0.000000E+00  0.000000E+00  0.000000E+00  0.000000E+00  0.100000E+01  0.307734E+03  0.299734E+03  0.295768E+03
  0.215000E-02  0.500000E-04  0.153615E+03 -0.186692E+01  0.254488E+24  0.118337E-01  0.306016E+03  0.297122E+03  0.295634E+03  0.107513E+04  0.430758E+00  0.456007E-05  0.105060E+09  0.133683E+32  0.000000E+00  0.000000E+00  0.000000E+00  0.000000E+00  0.100000E+01  0.306016E+03  0.297122E+03  0.295634E+03
  0.225000E-02  0.500000E-04  0.152096E+03  0.482382E+00  0.256065E+24  0.119070E-01  0.307752E+03  0.300609E+03  0.295357E+03  0.108793E+04  0.425264E+00  0.453841E-05  0.106365E+09  0.136181E+32  0.000000E+00  0.000000E+00  0.000000E+00  0.000000E+00  0.100000E+01  0.307752E+03  0.300609E+03  0.295357E+03
  0.235000E-02  0.500000E-04  0.150895E+03  0.702254E+00  0.252711E+24  0.117511E-01  0.306903E+03  0.298389E+03  0.295151E+03  0.107072E+04  0.422493E+00  0.459546E-05  0.103947E+09  0.131343E+32  0.000000E+00  0.000000E+00  0.000000E+00  0.000000E+00  0.100000E+01  0.306903E+03  0.298389E+03  0.295151E+03
  0.245000E-02  0.500000E-04  0.150582E+03  0.103650E+01  0.250136E+24  0.116313E-01  0.306546E+03  0.300092E+03  0.294797E+03  0.105857E+04  0.421867E+00  0.464142E-05  0.103552E+09  0.129510E+32  0.000000E+00  0.000000E+00  0.000000E+00  0.000000E+00  0.100000E+01  0.306546E+03  0.300092E+03  0.294797E+03
  0.255000E-02  0.500000E-04  0.147874E+03  0.459105E+00  0.255071E+24  0.118608E-01  0.306750E+03  0.299560E+03  0.294804E+03  0.108018E+04  0.414136E+00  0.455238E-05  0.105878E+09  0.135032E+32  0.000000E+00  0.000000E+00  0.000000E+00  0.000000E+00  0.100000E+01  0.306750E+03  0.299560E+03  0.294804E+03
  0.265000E-02  0.500000E-04  0.146385E+03  0.186980E+01  0.253583E+24  0.117916E-01  0.305048E+03  0.299475E+03  0.295467E+03  0.106792E+04  0.411138E+00  0.457272E-05  0.104369E+09  0.132332E+32  0.000000E+00  0.000000E+00  0.000000E+00  0.000000E+00  0.100000E+01  0.305048E+03  0.299475E+03  0.295467E+03
  0.275000E-02  0.500000E-04  0.144686E+03 -0.119151E+01  0.249768E+24  0.116142E-01  0.306440E+03  0.300426E+03  0.294968E+03  0.105665E+04  0.405423E+00  0.464785E-05  0.103100E+09  0.128756E+32  0.000000E+00  0.000000E+00  0.000000E+00  0.000000E+00  0.100000E+01  0.306440E+03  0.300426E+03  0.294968E+03
  0.285000E-02  0.500000E-04  0.144594E+03  0.562903E+00  0.251766E+24  0.117071E-01  0.309755E+03  0.302346E+03  0.295021E+03  0.107663E+04  0.402983E+00  0.462338E-05  0.104132E+09  0.131084E+32  0.000000E+00  0.000000E+00  0.000000E+00  0.000000E+00  0.100000E+01  0.309755E+03  0.302346E+03  0.295021E+03
  0.295000E-02  0.500000E-04  0.142515E+03 -0.617895E+00  0.251686E+24  0.117034E-01  0.309005E+03  0.302348E+03  0.295136E+03  0.107368E+04  0.397669E+00  0.462205E-05  0.105035E+09  0.132179E+32  0.000000E+00  0.000000E+00  0.000000E+00  0.000000E+00  0.100000E+01  0.309005E+03  0.302348E+03  0.295136E+03
  0.305000E-02  0.500000E-04  0.141880E+03  0.399545E+01  0.246128E+24  0.114450E-01  0.309831E+03  0.304329E+03  0.295525E+03  0.105277E+04  0.395522E+00  0.472958E-05  0.102819E+09  0.126533E+32  0.000000E+00  0.000000E+00  0.000000E+00  0.000000E+00  0.100000E+01  0.309831E+03  0.304329E+03  0.295525E+03
  0.315000E-02  0.500000E-04  0.137981E+03 -0.572127E+00  0.245147E+24  0.113993E-01  0.311463E+03  0.304621E+03  0.296075E+03  0.105410E+04  0.383497E+00  0.475476E-05  0.101881E+09  0.124879E+32  0.000000E+00  0.000000E+00  0.000000E+00  0.000000E+00  0.100000E+01  0.311463E+03  0.304621E+03  0.296075E+03
  0.325000E-02  0.500000E-04  0.136962E+03  0.163834E+01  0.245234E+24  0.114034E-01  0.308327E+03  0.303794E+03  0.295744E+03  0.104386E+04  0.382619E+00  0.474105E-05  0.101461E+09  0.124408E+32  0.000000E+00  0.000000E+00  0.000000E+00  0.000000E+00  0.100000E+01  0.308327E+03  0.303794E+03  0.295744E+03
  0.335000E-02  0.500000E-04  0.134974E+03  0.260995E+01  0.244791E+24  0.113828E-01  0.308229E+03  0.302997E+03  0.295592E+03  0.104164E+04  0.377169E+00  0.474925E-05  0.101341E+09  0.124037E+32  0.000000E+00  0.000000E+00  0.000000E+00  0.000000E+00  0.100000E+01  0.308229E+03  0.302997E+03  0.295592E+03
  0.345000E-02  0.500000E-04  0.137900E+03 -0.428273E+01  0.247847E+24  0.115249E-01  0.307263E+03  0.300947E+03  0.295705E+03  0.105134E+04  0.386065E+00  0.468702E-05  0.102608E+09  0.127156E+32  0.000000E+00  0.000000E+00  0.000000E+00  0.000000E+00  0.100000E+01  0.307263E+03  0.300947E+03  0.295705E+03
  0.355000E-02  0.500000E-04  0.137738E+03  0.138684E+01  0.248535E+24  0.115569E-01  0.307095E+03  0.303119E+03  0.295967E+03  0.105368E+04  0.385549E+00  0.467340E-05  0.102864E+09  0.127827E+32  0.000000E+00  0.000000E+00  0.000000E+00  0.000000E+00  0.100000E+01  0.307095E+03  0.303119E+03  0.295967E+03
  0.365000E-02  0.500000E-04  0.137034E+03 -0.105358E+00  0.247000E+24  0.114855E-01  0.309045E+03  0.305054E+03  0.296221E+03  0.105382E+04  0.382349E+00  0.470990E-05  0.101596E+09  0.125471E+32  0.000000E+00  0.000000E+00  0.000000E+00  0.000000E+00  0.100000E+01  0.309045E+03  0.305054E+03  0.296221E+03
  0.375000E-02  0.500000E-04  0.137111E+03  0.132017E+01  0.244689E+24  0.113780E-01  0.308232E+03  0.299368E+03  0.296731E+03  0.104122E+04  0.383084E+00  0.475126E-05  0.101316E+09  0.123954E+32  0.000000E+00  0.000000E+00  0.000000E+00  0.000000E+00  0.100000E+01  0.308232E+03  0.299368E+03  0.296731E+03
  0.385000E-02  0.500000E-04  0.131645E+03  0.276743E+00  0.248981E+24  0.115776E-01  0.305131E+03  0.301116E+03  0.296438E+03  0.104882E+04  0.369659E+00  0.465755E-05  0.103286E+09  0.128581E+32  0.000000E+00  0.000000E+00  0.000000E+00  0.000000E+00  0.100000E+01  0.305131E+03  0.301116E+03  0.296438E+03
  0.395000E-02  0.500000E-04  0.132049E+03  0.175319E-01  0.247247E+24  0.114970E-01  0.303661E+03  0.296704E+03  0.295956E+03  0.103650E+04  0.371692E+00  0.468457E-05  0.101541E+09  0.125528E+32  0.000000E+00  0.000000E+00  0.000000E+00  0.000000E+00  0.100000E+01  0.303661E+03  0.296704E+03  0.295956E+03
  0.405000E-02  0.500000E-04  0.130108E+03  0.357971E+00  0.248980E+24  0.115776E-01  0.304539E+03  0.300233E+03  0.295881E+03  0.104678E+04  0.365700E+00  0.465531E-05  0.103256E+09  0.128543E+32  0.000000E+00  0.000000E+00  0.000000E+00  0.000000E+00  0.100000E+01  0.304539E+03  0.300233E+03  0.295881E+03
  0.415000E-02  0.500000E-04  0.128239E+03  0.107878E+01  0.245437E+24  0.114128E-01  0.306464E+03  0.301579E+03  0.295598E+03  0.103841E+04  0.359326E+00  0.472996E-05  0.101237E+09  0.124236E+32  0.000000E+00  0.000000E+00  0.000000E+00  0.000000E+00  0.100000E+01  0.306464E+03  0.301579E+03  0.295598E+03
  0.425000E-02  0.500000E-04  0.128294E+03 -0.178914E+01  0.247081E+24  0.114893E-01  0.308752E+03  0.304056E+03  0.295502E+03  0.105317E+04  0.358167E+00  0.470723E-05  0.102214E+09  0.126276E+32  0.000000E+00  0.000000E+00  0.000000E+00  0.000000E+00  0.100000E+01  0.308752E+03  0.304056E+03  0.295502E+03
  0.435000E-02  0.500000E-04  0.126919E+03  0.502432E+01  0.244571E+24  0.113725E-01  0.307658E+03  0.302706E+03  0.295112E+03  0.103878E+04  0.355200E+00  0.475133E-05  0.101533E+09  0.124160E+32  0.000000E+00  0.000000E+00  0.000000E+00  0.000000E+00  0.100000E+01  0.307658E+03  0.302706E+03  0.295112E+03
  0.445000E-02  0.500000E-04  0.126198E+03 -0.366376E+00  0.242538E+24  0.112780E-01  0.307531E+03  0.302344E+03  0.295929E+03  0.102972E+04  0.352982E+00  0.479065E-05  0.100282E+09  0.121611E+32  0.000000E+00  0.000000E+00  0.000000E+00  0.000000E+00  0.100000E+01  0.307531E+03  0.302344E+03  0.295929E+03
  0.455000E-02  0.500000E-04  0.129413E+03 -0.110924E+00  0.238011E+24  0.110675E-01  0.308433E+03  0.301899E+03  0.295229E+03  0.101346E+04  0.361441E+00  0.488535E-05  0.986734E+08  0.117427E+32  0.000000E+00  0.000000E+00  0.000000E+00  0.000000E+00  0.100000E+01  0.308433E+03  0.301899E+03  0.295229E+03
  0.465000E-02  0.500000E-04  0.128416E+03 -0.124620E+01  0.237630E+24  0.110498E-01  0.308261E+03  0.301408E+03  0.295675E+03  0.101127E+04  0.358774E+00  0.489251E-05  0.986433E+08  0.117203E+32  0.000000E+00  0.000000E+00  0.000000E+00  0.000000E+00  0.100000E+01  0.308261E+03  0.301408E+03  0.295675E+03
  0.475000E-02  0.500000E-04  0.126505E+03  0.354988E+00  0.240586E+24  0.111873E-01  0.307046E+03  0.301427E+03  0.296459E+03  0.101982E+04  0.354118E+00  0.482762E-05  0.995860E+08  0.119795E+32  0.000000E+00  0.000000E+00  0.000000E+00  0.000000E+00  0.100000E+01  0.307046E+03  0.301427E+03  0.296459E+03
  0.485000E-02  0.500000E-04  0.127346E+03  0.522846E-01  0.236811E+24  0.110117E-01  0.309087E+03  0.302907E+03  0.296349E+03  0.101049E+04  0.355293E+00  0.491270E-05  0.986661E+08  0.116826E+32  0.000000E+00  0.000000E+00  0.000000E+00  0.000000E+00  0.100000E+01  0.309087E+03  0.302907E+03  0.296349E+03
  0.495000E-02  0.500000E-04  0.128918E+03 -0.148200E+01  0.235678E+24  0.109590E-01  0.311321E+03  0.306873E+03  0.295594E+03  0.101292E+04  0.358410E+00  0.494521E-05  0.982832E+08  0.115816E+32  0.000000E+00  0.000000E+00  0.000000E+00  0.000000E+00  0.100000E+01  0.311321E+03  0.306873E+03  0.295594E+03
  0.505000E-02  0.500000E-04  0.127649E+03 -0.161790E+01  0.241550E+24  0.112321E-01  0.309009E+03  0.302769E+03  0.296300E+03  0.103045E+04  0.356210E+00  0.481602E-05  0.100327E+09  0.121170E+32  0.000000E+00  0.000000E+00  0.000000E+00  0.000000E+00  0.100000E+01  0.309009E+03  0.302769E+03  0.296300E+03
  0.515000E-02  0.500000E-04  0.124194E+03  0.192588E+01  0.245218E+24  0.114026E-01  0.305808E+03  0.305600E+03  0.296548E+03  0.103526E+04  0.348392E+00  0.473165E-05  0.101642E+09  0.124622E+32  0.000000E+00  0.000000E+00  0.000000E+00  0.000000E+00  0.100000E+01  0.305808E+03  0.305600E+03  0.296548E+03
  0.525000E-02  0.500000E-04  0.125956E+03  0.125316E+01  0.240973E+24  0.112052E-01  0.308556E+03  0.303696E+03  0.296449E+03  0.102648E+04  0.351735E+00  0.482579E-05  0.998638E+08  0.120322E+32  0.000000E+00  0.000000E+00  0.000000E+00  0.000000E+00  0.100000E+01  0.308556E+03  0.303696E+03  0.296449E+03
  0.535000E-02  0.500000E-04  0.124481E+03 -0.156093E+00  0.240155E+24  0.111672E-01  0.308254E+03  0.303782E+03  0.296250E+03  0.102200E+04  0.347769E+00  0.484103E-05  0.993507E+08  0.119298E+32  0.000000E+00  0.000000E+00  0.000000E+00  0.000000E+00  0.100000E+01  0.308254E+03  0.303782E+03  0.296250E+03
  0.545000E-02  0.500000E-04  0.127037E+03  0.912507E+00  0.235782E+24  0.109639E-01  0.309686E+03  0.301474E+03  0.296366E+03  0.100805E+04  0.354097E+00  0.493653E-05  0.972869E+08  0.114693E+32  0.000000E+00  0.000000E+00  0.000000E+00  0.000000E+00  0.100000E+01  0.309686E+03  0.301474E+03  0.296366E+03