TITLE=" Box                                                                     /                                                                         "
VARIABLES="X",        "Y",      "Vx   ",      "Vy   ",      "Nden ",      "Rho  ",      "Ttrn ",      "Trot ",      "Tvib ",      "Press",      "Ma   ",      "Lambd",      "Relac",      "Coll ",      "frac1",      "Ttrn1",      "Trot1",      "Tvib1",      "frac2",      "Ttrn2",      "Trot2",      "Tvib2",      "rho_dif",      "Ma_dif,      "Pa_dif",      "T_dif",      "V_ref", ,      "Rho_ref",      "P_ref"
ZONE T="DSMC,BG", I=  200, J=   50, F=POINT
-0.395000E-02	0.500000E-04	0.802314E+03	0.249313E+02	0.128358E+25	0.596863E-01	0.100454E+03	0.841095E+02	0.233534E+03	0.178008E+04	0.392833E+01	0.684342E-06	0.385042E+09	0.247116E+33	0.000000E+00	0.000000E+00	0.000000E+00	0.000000E+00	0.100000E+01	0.100454E+03	0.841095E+02	0.233534E+03	2.779016E-01	2.267000E-02	8.292295E-01	1.106693E+00	8.025110E+02	5.985240E-02	1.765380E+03
-0.385000E-02	0.500000E-04	0.742104E+03	0.671787E+02	0.138665E+25	0.644791E-01	0.143019E+03	0.115748E+03	0.245793E+03	0.273784E+04	0.305618E+01	0.691967E-06	0.476006E+09	0.330026E+33	0.000000E+00	0.000000E+00	0.000000E+00	0.000000E+00	0.100000E+01	0.143019E+03	0.115748E+03	0.245793E+03	5.393370E-01	1.085000E-02	9.610841E-01	4.214316E-01	7.410810E+02	6.482780E-02	2.764280E+03
-0.375000E-02	0.500000E-04	0.712531E+03	0.887676E+02	0.138466E+25	0.643866E-01	0.160263E+03	0.130503E+03	0.250189E+03	0.306355E+04	0.278208E+01	0.712966E-06	0.525191E+09	0.363605E+33	0.000000E+00	0.000000E+00	0.000000E+00	0.000000E+00	0.100000E+01	0.160263E+03	0.130503E+03	0.250189E+03	7.518233E-01	1.172000E-02	1.268526E+00	5.165611E-01	7.113530E+02	6.487250E-02	3.102660E+03
-0.365000E-02	0.500000E-04	0.675746E+03	0.743245E+02	0.112159E+25	0.521539E-01	0.183695E+03	0.147622E+03	0.257200E+03	0.284433E+04	0.246028E+01	0.910739E-06	0.460387E+09	0.258182E+33	0.000000E+00	0.000000E+00	0.000000E+00	0.000000E+00	0.100000E+01	0.183695E+03	0.147622E+03	0.257200E+03	1.385322E-01	1.179000E-02	3.814838E-01	5.201440E-01	6.772360E+02	5.222620E-02	2.833500E+03
-0.355000E-02	0.500000E-04	0.627612E+03	0.540003E+02	0.871501E+24	0.405248E-01	0.212128E+03	0.169799E+03	0.264280E+03	0.255219E+04	0.212145E+01	0.121502E-05	0.358673E+09	0.156292E+33	0.000000E+00	0.000000E+00	0.000000E+00	0.000000E+00	0.100000E+01	0.212128E+03	0.169799E+03	0.264280E+03	4.117053E-01	1.983000E-02	1.293879E+00	8.830681E-01	6.309040E+02	4.035830E-02	2.519380E+03
-0.345000E-02	0.500000E-04	0.583700E+03	0.400376E+02	0.714749E+24	0.332358E-01	0.234200E+03	0.190188E+03	0.270034E+03	0.231094E+04	0.187523E+01	0.151861E-05	0.293998E+09	0.105067E+33	0.000000E+00	0.000000E+00	0.000000E+00	0.000000E+00	0.100000E+01	0.234200E+03	0.190188E+03	0.270034E+03	1.074953E+00	4.000000E-03	8.012119E-01	2.736446E-01	5.841240E+02	3.359500E-02	2.329530E+03
-0.335000E-02	0.500000E-04	0.541264E+03	0.308317E+02	0.613767E+24	0.285401E-01	0.253825E+03	0.207499E+03	0.274429E+03	0.215073E+04	0.166911E+01	0.180440E-05	0.252231E+09	0.774055E+32	0.000000E+00	0.000000E+00	0.000000E+00	0.000000E+00	0.100000E+01	0.253825E+03	0.207499E+03	0.274429E+03	1.758398E+00	1.290000E-03	1.242965E+00	5.158548E-01	5.394160E+02	2.904640E-02	2.177630E+03
-0.325000E-02	0.500000E-04	0.504906E+03	0.218221E+02	0.543794E+24	0.252864E-01	0.264545E+03	0.221789E+03	0.277869E+03	0.198601E+04	0.152407E+01	0.205775E-05	0.222473E+09	0.604897E+32	0.000000E+00	0.000000E+00	0.000000E+00	0.000000E+00	0.100000E+01	0.264545E+03	0.221789E+03	0.277869E+03	1.997533E+00	2.649000E-02	3.250901E+00	1.253505E+00	4.991370E+02	2.579660E-02	2.051640E+03
-0.315000E-02	0.500000E-04	0.468435E+03	0.180376E+02	0.502813E+24	0.233808E-01	0.277999E+03	0.234967E+03	0.280351E+03	0.192974E+04	0.137908E+01	0.225324E-05	0.203754E+09	0.512251E+32	0.000000E+00	0.000000E+00	0.000000E+00	0.000000E+00	0.100000E+01	0.277999E+03	0.234967E+03	0.280351E+03	6.318509E-01	9.080000E-03	7.439550E-01	1.121677E-01	4.655360E+02	2.352900E-02	1.944150E+03
-0.305000E-02	0.500000E-04	0.440696E+03	0.164306E+02	0.469617E+24	0.218372E-01	0.284679E+03	0.245667E+03	0.282680E+03	0.184564E+04	0.128204E+01	0.242688E-05	0.192274E+09	0.451476E+32	0.000000E+00	0.000000E+00	0.000000E+00	0.000000E+00	0.100000E+01	0.284679E+03	0.245667E+03	0.282680E+03	1.587800E+00	7.120000E-03	1.687798E+00	1.005145E-01	4.430050E+02	2.149320E-02	1.814750E+03
-0.295000E-02	0.500000E-04	0.422513E+03	0.113582E+02	0.436557E+24	0.202999E-01	0.287906E+03	0.247120E+03	0.284180E+03	0.173516E+04	0.122183E+01	0.261803E-05	0.177406E+09	0.387239E+32	0.000000E+00	0.000000E+00	0.000000E+00	0.000000E+00	0.100000E+01	0.287906E+03	0.247120E+03	0.284180E+03	5.911184E-03	1.101000E-02	3.090034E-01	3.027649E-01	4.193070E+02	2.030110E-02	1.740530E+03
-0.285000E-02	0.500000E-04	0.398713E+03	0.107955E+02	0.420726E+24	0.195638E-01	0.294106E+03	0.256439E+03	0.285200E+03	0.170825E+04	0.114079E+01	0.273105E-05	0.171150E+09	0.360037E+32	0.000000E+00	0.000000E+00	0.000000E+00	0.000000E+00	0.100000E+01	0.294106E+03	0.256439E+03	0.285200E+03	2.055276E+00	8.090000E-03	2.831869E+00	7.775620E-01	4.000010E+02	1.916580E-02	1.660550E+03
-0.275000E-02	0.500000E-04	0.380569E+03	0.108357E+02	0.398283E+24	0.185202E-01	0.295152E+03	0.262001E+03	0.286586E+03	0.162288E+04	0.108699E+01	0.288751E-05	0.161733E+09	0.322078E+32	0.000000E+00	0.000000E+00	0.000000E+00	0.000000E+00	0.100000E+01	0.295152E+03	0.262001E+03	0.286586E+03	2.701500E-01	1.248000E-02	5.708054E-01	3.000722E-01	3.767760E+02	1.857030E-02	1.632170E+03
-0.265000E-02	0.500000E-04	0.359991E+03	0.942335E+01	0.385595E+24	0.179302E-01	0.297435E+03	0.266933E+03	0.287160E+03	0.158333E+04	0.102420E+01	0.298827E-05	0.156510E+09	0.301747E+32	0.000000E+00	0.000000E+00	0.000000E+00	0.000000E+00	0.100000E+01	0.297435E+03	0.266933E+03	0.287160E+03	4.034849E-01	2.100000E-04	4.481608E-01	4.506201E-02	3.598560E+02	1.785800E-02	1.576250E+03
-0.255000E-02	0.500000E-04	0.338974E+03	0.885256E+01	0.378814E+24	0.176148E-01	0.300103E+03	0.271123E+03	0.287226E+03	0.156944E+04	0.960107E+00	0.304856E-05	0.154277E+09	0.292212E+32	0.000000E+00	0.000000E+00	0.000000E+00	0.000000E+00	0.100000E+01	0.300103E+03	0.271123E+03	0.287226E+03	2.353252E+00	2.618000E-02	2.559354E+00	2.064755E-01	3.478890E+02	1.720510E-02	1.529780E+03
-0.245000E-02	0.500000E-04	0.325191E+03	0.796050E+01	0.364015E+24	0.169267E-01	0.303038E+03	0.275580E+03	0.287830E+03	0.152288E+04	0.916559E+00	0.318022E-05	0.149056E+09	0.271293E+32	0.000000E+00	0.000000E+00	0.000000E+00	0.000000E+00	0.100000E+01	0.303038E+03	0.275580E+03	0.287830E+03	7.822902E-01	2.007100E-02	1.240176E+00	4.577537E-01	3.315850E+02	1.679480E-02	1.504110E+03
-0.235000E-02	0.500000E-04	0.316623E+03	0.484481E+01	0.352115E+24	0.163733E-01	0.304735E+03	0.278894E+03	0.288535E+03	0.148134E+04	0.889759E+00	0.329230E-05	0.144650E+09	0.254667E+32	0.000000E+00	0.000000E+00	0.000000E+00	0.000000E+00	0.100000E+01	0.304735E+03	0.278894E+03	0.288535E+03	1.294903E+00	3.040000E-04	4.102709E-01	8.846611E-01	3.152960E+02	1.658670E-02	1.487430E+03
-0.225000E-02	0.500000E-04	0.312113E+03	0.469363E+01	0.337441E+24	0.156910E-01	0.305374E+03	0.279805E+03	0.289080E+03	0.142259E+04	0.876163E+00	0.343727E-05	0.138114E+09	0.233026E+32	0.000000E+00	0.000000E+00	0.000000E+00	0.000000E+00	0.100000E+01	0.305374E+03	0.279805E+03	0.289080E+03	2.184156E+00	1.448000E-02	1.876656E+00	3.073083E-01	3.064670E+02	1.603750E-02	1.449540E+03
-0.215000E-02	0.500000E-04	0.288204E+03	0.604843E+01	0.348340E+24	0.161978E-01	0.305243E+03	0.286259E+03	0.289657E+03	0.146791E+04	0.809306E+00	0.332936E-05	0.141918E+09	0.247178E+32	0.000000E+00	0.000000E+00	0.000000E+00	0.000000E+00	0.100000E+01	0.305243E+03	0.286259E+03	0.289657E+03	3.356465E+00	1.990800E-02	2.586308E+00	7.711524E-01	2.964710E+02	1.566310E-02	1.430430E+03
-0.205000E-02	0.500000E-04	0.287508E+03	0.391006E+01	0.330161E+24	0.153525E-01	0.304114E+03	0.282668E+03	0.289936E+03	0.138615E+04	0.808747E+00	0.350943E-05	0.135104E+09	0.223030E+32	0.000000E+00	0.000000E+00	0.000000E+00	0.000000E+00	0.100000E+01	0.304114E+03	0.282668E+03	0.289936E+03	4.936434E-01	9.054000E-03	7.417470E-01	1.234628E+00	2.925430E+02	1.527690E-02	1.396470E+03
-0.195000E-02	0.500000E-04	0.277242E+03	0.287751E+01	0.329075E+24	0.153020E-01	0.303060E+03	0.283032E+03	0.290667E+03	0.137680E+04	0.781192E+00	0.351795E-05	0.135424E+09	0.222823E+32	0.000000E+00	0.000000E+00	0.000000E+00	0.000000E+00	0.100000E+01	0.303060E+03	0.283032E+03	0.290667E+03	1.275156E-01	5.626000E-03	1.665274E+00	1.792669E+00	2.776960E+02	1.528250E-02	1.399920E+03
-0.185000E-02	0.500000E-04	0.270235E+03	0.456153E+01	0.328449E+24	0.152729E-01	0.304340E+03	0.282973E+03	0.291128E+03	0.137999E+04	0.759915E+00	0.352837E-05	0.133957E+09	0.219990E+32	0.000000E+00	0.000000E+00	0.000000E+00	0.000000E+00	0.100000E+01	0.304340E+03	0.282973E+03	0.291128E+03	3.764321E+00	4.646000E-03	2.384636E+00	1.379652E+00	2.737890E+02	1.470860E-02	1.347470E+03
-0.175000E-02	0.500000E-04	0.260100E+03	0.414180E+01	0.321869E+24	0.149669E-01	0.305610E+03	0.284074E+03	0.291329E+03	0.135799E+04	0.729882E+00	0.360425E-05	0.131884E+09	0.212247E+32	0.000000E+00	0.000000E+00	0.000000E+00	0.000000E+00	0.100000E+01	0.305610E+03	0.284074E+03	0.291329E+03	3.931641E+00	2.220500E-02	2.742569E+00	1.189506E+00	2.696380E+02	1.438980E-02	1.321250E+03
-0.165000E-02	0.500000E-04	0.256477E+03	0.369163E+01	0.310616E+24	0.144436E-01	0.305135E+03	0.288207E+03	0.292197E+03	0.130847E+04	0.720257E+00	0.373338E-05	0.127054E+09	0.197325E+32	0.000000E+00	0.000000E+00	0.000000E+00	0.000000E+00	0.100000E+01	0.305135E+03	0.288207E+03	0.292197E+03	2.273483E-01	7.215000E-03	1.354193E+00	1.582089E+00	2.611120E+02	1.441080E-02	1.326310E+03
-0.155000E-02	0.500000E-04	0.250389E+03	0.542168E+01	0.306746E+24	0.142637E-01	0.308568E+03	0.291384E+03	0.291670E+03	0.130671E+04	0.699329E+00	0.379107E-05	0.126284E+09	0.193686E+32	0.000000E+00	0.000000E+00	0.000000E+00	0.000000E+00	0.100000E+01	0.308568E+03	0.291384E+03	0.291670E+03	7.360288E-01	1.560900E-02	1.261436E+00	5.254103E-01	2.553350E+02	1.415910E-02	1.290330E+03
-0.145000E-02	0.500000E-04	0.241978E+03	0.129217E+01	0.308963E+24	0.143668E-01	0.306358E+03	0.291132E+03	0.291670E+03	0.130672E+04	0.678123E+00	0.375711E-05	0.126945E+09	0.196107E+32	0.000000E+00	0.000000E+00	0.000000E+00	0.000000E+00	0.100000E+01	0.306358E+03	0.291132E+03	0.291670E+03	1.250919E+00	8.430000E-03	1.152216E+00	9.820282E-02	2.450630E+02	1.418820E-02	1.291750E+03
-0.135000E-02	0.500000E-04	0.244334E+03	0.142287E+01	0.296099E+24	0.137686E-01	0.305493E+03	0.287659E+03	0.291776E+03	0.124878E+04	0.685695E+00	0.391757E-05	0.120670E+09	0.178652E+32	0.000000E+00	0.000000E+00	0.000000E+00	0.000000E+00	0.100000E+01	0.305493E+03	0.287659E+03	0.291776E+03	2.133016E-01	1.698000E-03	8.230059E-01	6.096069E-01	2.444770E+02	1.379800E-02	1.259100E+03
-0.125000E-02	0.500000E-04	0.236870E+03	0.183106E+01	0.294194E+24	0.136800E-01	0.308457E+03	0.289860E+03	0.291969E+03	0.125279E+04	0.661554E+00	0.395246E-05	0.121748E+09	0.179088E+32	0.000000E+00	0.000000E+00	0.000000E+00	0.000000E+00	0.100000E+01	0.308457E+03	0.289860E+03	0.291969E+03	2.091207E+00	2.452000E-03	1.503628E+00	5.872140E-01	2.370550E+02	1.396910E-02	1.271770E+03
-0.115000E-02	0.500000E-04	0.224123E+03	0.409877E+01	0.297869E+24	0.138509E-01	0.308314E+03	0.290910E+03	0.292660E+03	0.126785E+04	0.626185E+00	0.390324E-05	0.123140E+09	0.183397E+32	0.000000E+00	0.000000E+00	0.000000E+00	0.000000E+00	0.100000E+01	0.308314E+03	0.290910E+03	0.292660E+03	7.878781E-01	2.367500E-02	1.549155E+00	7.612040E-01	2.317070E+02	1.374220E-02	1.248360E+03
-0.105000E-02	0.500000E-04	0.221493E+03	0.230971E+01	0.291523E+24	0.135558E-01	0.308787E+03	0.295671E+03	0.293182E+03	0.124274E+04	0.618295E+00	0.398974E-05	0.119545E+09	0.174250E+32	0.000000E+00	0.000000E+00	0.000000E+00	0.000000E+00	0.100000E+01	0.308787E+03	0.295671E+03	0.293182E+03	3.080913E-01	2.091900E-02	8.168476E-01	5.084350E-01	2.284010E+02	1.351410E-02	1.232630E+03
-0.950000E-03	0.500000E-04	0.215411E+03	0.244559E+01	0.290675E+24	0.135164E-01	0.310430E+03	0.296560E+03	0.293745E+03	0.124572E+04	0.599729E+00	0.400669E-05	0.119347E+09	0.173456E+32	0.000000E+00	0.000000E+00	0.000000E+00	0.000000E+00	0.100000E+01	0.310430E+03	0.296560E+03	0.293745E+03	7.649518E-01	2.737900E-02	1.346382E+00	5.815268E-01	2.246030E+02	1.341340E-02	1.229060E+03
-0.850000E-03	0.500000E-04	0.215654E+03	-0.732952E+00	0.282429E+24	0.131329E-01	0.309879E+03	0.294518E+03	0.293660E+03	0.120823E+04	0.600904E+00	0.412185E-05	0.116530E+09	0.164556E+32	0.000000E+00	0.000000E+00	0.000000E+00	0.000000E+00	0.100000E+01	0.309879E+03	0.294518E+03	0.293660E+03	1.095023E+00	1.998800E-02	2.933872E-01	8.009253E-01	2.219380E+02	1.327750E-02	1.211780E+03
-0.750000E-03	0.500000E-04	0.212272E+03	-0.702688E+00	0.285189E+24	0.132613E-01	0.309188E+03	0.298443E+03	0.292969E+03	0.121732E+04	0.592141E+00	0.407967E-05	0.117556E+09	0.167628E+32	0.000000E+00	0.000000E+00	0.000000E+00	0.000000E+00	0.100000E+01	0.309188E+03	0.298443E+03	0.292969E+03	2.623246E+00	1.143900E-02	2.408778E+00	2.143387E-01	2.161420E+02	1.361380E-02	1.247000E+03
-0.650000E-03	0.500000E-04	0.204404E+03	0.382110E+01	0.291540E+24	0.135566E-01	0.306096E+03	0.293649E+03	0.293071E+03	0.123198E+04	0.573161E+00	0.398079E-05	0.119343E+09	0.173966E+32	0.000000E+00	0.000000E+00	0.000000E+00	0.000000E+00	0.100000E+01	0.306096E+03	0.293649E+03	0.293071E+03	1.453324E+00	2.663600E-02	6.122682E-01	8.406314E-01	2.148070E+02	1.336100E-02	1.224460E+03
-0.550000E-03	0.500000E-04	0.213583E+03	-0.137096E+01	0.274878E+24	0.127818E-01	0.304093E+03	0.293666E+03	0.293124E+03	0.115397E+04	0.600776E+00	0.421517E-05	0.112709E+09	0.154906E+32	0.000000E+00	0.000000E+00	0.000000E+00	0.000000E+00	0.100000E+01	0.304093E+03	0.293666E+03	0.293124E+03	2.741629E+00	1.313900E-02	4.798958E+00	2.058225E+00	2.110570E+02	1.313710E-02	1.210710E+03
-0.450000E-03	0.500000E-04	0.209809E+03	0.551410E+00	0.280392E+24	0.130382E-01	0.304078E+03	0.291043E+03	0.293497E+03	0.117706E+04	0.590164E+00	0.413222E-05	0.115698E+09	0.162204E+32	0.000000E+00	0.000000E+00	0.000000E+00	0.000000E+00	0.100000E+01	0.304078E+03	0.291043E+03	0.293497E+03	8.743495E-01	2.374600E-02	2.572134E+00	1.697206E+00	2.030750E+02	1.315270E-02	1.207730E+03
-0.350000E-03	0.500000E-04	0.212799E+03	0.351007E+01	0.273048E+24	0.126967E-01	0.304127E+03	0.289711E+03	0.293459E+03	0.114642E+04	0.598606E+00	0.424353E-05	0.111999E+09	0.152906E+32	0.000000E+00	0.000000E+00	0.000000E+00	0.000000E+00	0.100000E+01	0.304127E+03	0.289711E+03	0.293459E+03	2.033195E+00	4.461200E-02	4.165510E+00	2.133013E+00	1.990370E+02	1.295750E-02	1.195190E+03
-0.250000E-03	0.500000E-04	0.219047E+03	-0.679336E+00	0.261456E+24	0.121577E-01	0.307592E+03	0.292714E+03	0.293002E+03	0.111026E+04	0.612621E+00	0.444425E-05	0.108027E+09	0.141221E+32	0.000000E+00	0.000000E+00	0.000000E+00	0.000000E+00	0.100000E+01	0.307592E+03	0.292714E+03	0.293002E+03	6.596221E+00	8.040600E-02	7.937586E+00	1.343998E+00	1.915640E+02	1.298700E-02	1.202030E+03
-0.150000E-03	0.500000E-04	0.234052E+03	-0.873427E+01	0.252804E+24	0.117554E-01	0.298692E+03	0.289449E+03	0.293033E+03	0.104245E+04	0.664727E+00	0.456273E-05	0.102819E+09	0.129965E+32	0.000000E+00	0.000000E+00	0.000000E+00	0.000000E+00	0.100000E+01	0.298692E+03	0.289449E+03	0.293033E+03	8.511227E+00	1.356730E-01	1.119483E+01	2.689232E+00	1.889120E+02	1.280040E-02	1.166070E+03
-0.499999E-04	0.500000E-04	0.286197E+03	-0.189185E+02	0.222107E+24	0.103280E-01	0.285759E+03	0.278339E+03	0.292521E+03	0.876217E+03	0.832247E+00	0.513607E-05	0.918342E+08	0.101985E+32	0.130792E-02	0.422714E+03	0.302968E+03	0.294004E+03	0.998692E+00	0.285580E+03	0.278306E+03	0.292518E+03	2.061659E+01	3.043710E-01	2.792764E+01	7.417966E+00	1.888020E+02	1.270200E-02	1.160640E+03
0.499999E-04	0.500000E-04	0.585302E+03	0.141180E+02	0.510688E+24	0.237470E-01	0.168779E+03	0.146383E+03	0.278283E+03	0.118993E+04	0.221048E+01	0.195813E-05	0.180973E+09	0.462105E+32	0.757751E+00	0.165959E+03	0.141774E+03	0.244128E+03	0.242249E+00	0.177599E+03	0.160799E+03	0.291594E+03	6.075188E+01	1.681334E+00	2.524041E+00	5.845141E+01	1.893760E+02	1.268150E-02	1.160270E+03
0.150000E-03	0.500000E-04	0.506776E+03	0.457347E+02	0.594374E+24	0.276384E-01	0.209496E+03	0.185117E+03	0.278372E+03	0.171903E+04	0.172436E+01	0.177568E-05	0.232283E+09	0.690316E+32	0.739712E+00	0.204187E+03	0.182316E+03	0.255836E+03	0.260288E+00	0.224584E+03	0.193075E+03	0.292355E+03	7.597625E+01	1.198001E+00	4.058781E+01	3.834437E+01	1.885960E+02	1.242070E-02	1.139020E+03
0.250000E-03	0.500000E-04	0.454594E+03	0.366145E+02	0.575962E+24	0.267822E-01	0.235712E+03	0.206747E+03	0.279958E+03	0.187424E+04	0.145705E+01	0.188682E-05	0.233164E+09	0.671469E+32	0.714405E+00	0.225818E+03	0.200257E+03	0.262566E+03	0.285595E+00	0.260461E+03	0.222980E+03	0.292765E+03	7.279853E+01	9.386070E-01	4.870076E+01	2.644212E+01	1.853450E+02	1.248810E-02	1.140210E+03
0.350000E-03	0.500000E-04	0.402984E+03	0.241672E+02	0.526493E+24	0.244819E-01	0.256954E+03	0.228372E+03	0.282534E+03	0.186766E+04	0.123532E+01	0.210911E-05	0.216822E+09	0.570777E+32	0.687230E+00	0.245463E+03	0.219050E+03	0.267609E+03	0.312770E+00	0.282204E+03	0.248853E+03	0.294063E+03	6.486318E+01	7.223960E-01	4.807781E+01	1.820472E+01	1.836250E+02	1.249100E-02	1.143750E+03
0.450000E-03	0.500000E-04	0.360550E+03	0.180522E+02	0.486775E+24	0.226350E-01	0.272961E+03	0.243861E+03	0.284842E+03	0.183433E+04	0.107176E+01	0.231587E-05	0.203900E+09	0.496266E+32	0.648461E+00	0.259258E+03	0.231582E+03	0.271493E+03	0.351539E+00	0.298239E+03	0.266511E+03	0.294803E+03	5.920041E+01	5.652330E-01	4.712186E+01	1.298405E+01	1.820640E+02	1.229550E-02	1.134780E+03
0.550000E-03	0.500000E-04	0.330875E+03	0.128050E+02	0.444018E+24	0.206469E-01	0.280068E+03	0.253151E+03	0.286561E+03	0.171677E+04	0.970503E+00	0.255532E-05	0.186280E+09	0.413559E+32	0.599611E+00	0.265066E+03	0.241138E+03	0.273995E+03	0.400389E+00	0.302534E+03	0.271142E+03	0.294967E+03	4.918941E+01	4.791520E-01	4.014632E+01	9.511891E+00	1.758120E+02	1.249560E-02	1.142770E+03
0.650000E-03	0.500000E-04	0.301983E+03	0.101541E+02	0.418304E+24	0.194511E-01	0.289573E+03	0.265644E+03	0.288163E+03	0.167224E+04	0.870941E+00	0.273534E-05	0.174757E+09	0.365508E+32	0.541266E+00	0.273959E+03	0.250628E+03	0.276043E+03	0.458734E+00	0.307997E+03	0.283361E+03	0.295083E+03	4.379242E+01	3.781710E-01	3.862468E+01	5.396124E+00	1.756260E+02	1.246310E-02	1.130890E+03
0.750000E-03	0.500000E-04	0.285973E+03	0.239444E+01	0.392082E+24	0.182318E-01	0.292706E+03	0.270621E+03	0.289703E+03	0.158437E+04	0.819908E+00	0.292606E-05	0.163759E+09	0.321035E+32	0.487902E+00	0.274527E+03	0.251081E+03	0.276825E+03	0.512098E+00	0.310025E+03	0.289237E+03	0.295700E+03	3.919262E+01	3.265510E-01	3.471627E+01	4.633437E+00	1.760930E+02	1.225710E-02	1.115690E+03
0.850000E-03	0.500000E-04	0.268476E+03	0.571480E+01	0.379829E+24	0.176620E-01	0.295703E+03	0.275371E+03	0.290644E+03	0.155057E+04	0.765979E+00	0.302853E-05	0.159886E+09	0.303647E+32	0.434403E+00	0.279282E+03	0.258053E+03	0.277179E+03	0.565597E+00	0.308315E+03	0.288673E+03	0.295761E+03	3.606224E+01	2.827260E-01	3.138692E+01	4.811670E+00	1.735450E+02	1.226570E-02	1.129910E+03
0.950000E-03	0.500000E-04	0.259245E+03	0.270716E+01	0.357092E+24	0.166048E-01	0.298574E+03	0.276195E+03	0.291325E+03	0.147191E+04	0.735949E+00	0.322938E-05	0.149369E+09	0.266693E+32	0.392679E+00	0.283613E+03	0.260404E+03	0.278062E+03	0.607321E+00	0.308247E+03	0.286405E+03	0.295727E+03	3.059660E+01	2.545850E-01	2.694698E+01	3.726304E+00	1.727530E+02	1.219840E-02	1.122370E+03
0.105000E-02	0.500000E-04	0.249507E+03	0.206503E+01	0.345799E+24	0.160797E-01	0.299529E+03	0.280634E+03	0.291815E+03	0.142992E+04	0.707161E+00	0.333769E-05	0.144761E+09	0.250290E+32	0.365790E+00	0.286872E+03	0.264347E+03	0.279854E+03	0.634210E+00	0.306829E+03	0.290027E+03	0.295632E+03	2.788771E+01	2.358260E-01	2.409554E+01	3.856354E+00	1.695430E+02	1.214420E-02	1.122420E+03
0.115000E-02	0.500000E-04	0.240868E+03	0.409372E+01	0.333635E+24	0.155140E-01	0.303654E+03	0.286769E+03	0.292156E+03	0.139862E+04	0.678097E+00	0.347137E-05	0.140606E+09	0.234556E+32	0.346786E+00	0.293321E+03	0.275712E+03	0.280689E+03	0.653214E+00	0.309140E+03	0.292639E+03	0.295638E+03	2.562126E+01	2.114830E-01	2.250912E+01	3.157605E+00	1.684000E+02	1.199050E-02	1.115650E+03
0.125000E-02	0.500000E-04	0.227148E+03	0.142563E+01	0.327921E+24	0.152483E-01	0.306010E+03	0.288408E+03	0.292514E+03	0.138533E+04	0.636928E+00	0.353882E-05	0.138311E+09	0.226775E+32	0.321480E+00	0.299143E+03	0.277764E+03	0.283209E+03	0.678520E+00	0.309263E+03	0.293451E+03	0.295327E+03	2.157591E+01	1.870710E-01	2.036499E+01	1.224121E+00	1.614210E+02	1.227870E-02	1.129280E+03
0.135000E-02	0.500000E-04	0.216073E+03	0.318204E+00	0.316812E+24	0.147318E-01	0.306887E+03	0.292574E+03	0.292425E+03	0.134224E+04	0.604996E+00	0.366552E-05	0.132915E+09	0.210546E+32	0.316243E+00	0.300080E+03	0.282756E+03	0.286142E+03	0.683757E+00	0.310036E+03	0.297116E+03	0.294557E+03	1.883651E+01	1.614820E-01	1.895087E+01	1.147660E-01	1.582970E+02	1.219570E-02	1.109890E+03
0.145000E-02	0.500000E-04	0.210168E+03	0.261725E+01	0.302825E+24	0.140814E-01	0.308417E+03	0.295547E+03	0.293227E+03	0.128937E+04	0.587047E+00	0.383966E-05	0.127595E+09	0.193195E+32	0.323552E+00	0.304512E+03	0.289852E+03	0.289248E+03	0.676448E+00	0.310284E+03	0.298271E+03	0.294784E+03	1.445117E+01	1.537710E-01	1.407971E+01	3.728240E-01	1.554110E+02	1.218360E-02	1.119770E+03
0.155000E-02	0.500000E-04	0.200500E+03	0.200517E+01	0.303375E+24	0.141069E-01	0.311915E+03	0.301023E+03	0.293202E+03	0.130637E+04	0.556877E+00	0.384355E-05	0.127959E+09	0.194098E+32	0.320174E+00	0.312949E+03	0.296470E+03	0.290104E+03	0.679826E+00	0.311428E+03	0.303167E+03	0.294449E+03	1.529117E+01	1.238790E-01	1.632134E+01	1.035745E+00	1.550970E+02	1.210300E-02	1.109240E+03
0.165000E-02	0.500000E-04	0.190585E+03	-0.814514E+00	0.303741E+24	0.141239E-01	0.312118E+03	0.300411E+03	0.293822E+03	0.130879E+04	0.529145E+00	0.383954E-05	0.126819E+09	0.192601E+32	0.349626E+00	0.311873E+03	0.300123E+03	0.292899E+03	0.650374E+00	0.312250E+03	0.300566E+03	0.294295E+03	1.621800E+01	1.021870E-01	1.793915E+01	1.733476E+00	1.524530E+02	1.200510E-02	1.093330E+03
0.175000E-02	0.500000E-04	0.182268E+03	0.619653E+00	0.306900E+24	0.142708E-01	0.310555E+03	0.301360E+03	0.293912E+03	0.131578E+04	0.507322E+00	0.379524E-05	0.128517E+09	0.197210E+32	0.373899E+00	0.307748E+03	0.298500E+03	0.294377E+03	0.626101E+00	0.312231E+03	0.303067E+03	0.293626E+03	1.732817E+01	8.567300E-02	1.902562E+01	1.711811E+00	1.501930E+02	1.199510E-02	1.087190E+03
0.185000E-02	0.500000E-04	0.173004E+03	0.312623E+01	0.300613E+24	0.139785E-01	0.309669E+03	0.297492E+03	0.294538E+03	0.128515E+04	0.482302E+00	0.387186E-05	0.125623E+09	0.188820E+32	0.388220E+00	0.310453E+03	0.295441E+03	0.296016E+03	0.611780E+00	0.309171E+03	0.298793E+03	0.293514E+03	1.600176E+01	6.134900E-02	1.667074E+01	6.732981E-01	1.505140E+02	1.190740E-02	1.087390E+03
0.195000E-02	0.500000E-04	0.167830E+03	0.114204E+01	0.292555E+24	0.136038E-01	0.315132E+03	0.303147E+03	0.294107E+03	0.127277E+04	0.463739E+00	0.399593E-05	0.122631E+09	0.179381E+32	0.401887E+00	0.312911E+03	0.299690E+03	0.295832E+03	0.598113E+00	0.316625E+03	0.305469E+03	0.292816E+03	1.285704E+01	5.072500E-02	1.541794E+01	2.573860E+00	1.475620E+02	1.196040E-02	1.090580E+03
0.205000E-02	0.500000E-04	0.159357E+03	0.877473E+00	0.291106E+24	0.135365E-01	0.316158E+03	0.307339E+03	0.294622E+03	0.127059E+04	0.439610E+00	0.401908E-05	0.121455E+09	0.176781E+32	0.420539E+00	0.314979E+03	0.305073E+03	0.296472E+03	0.579461E+00	0.317013E+03	0.308984E+03	0.293108E+03	1.308514E+01	2.578700E-02	1.703905E+01	3.976851E+00	1.470410E+02	1.187400E-02	1.071090E+03
0.215000E-02	0.500000E-04	0.158697E+03	0.177615E+01	0.284636E+24	0.132356E-01	0.315288E+03	0.304170E+03	0.295553E+03	0.123893E+04	0.438413E+00	0.410761E-05	0.118964E+09	0.169307E+32	0.430281E+00	0.313252E+03	0.303295E+03	0.297035E+03	0.569719E+00	0.316827E+03	0.304830E+03	0.294322E+03	1.009389E+01	2.782800E-02	1.361967E+01	3.538003E+00	1.460260E+02	1.196380E-02	1.080950E+03
0.225000E-02	0.500000E-04	0.154545E+03	-0.385093E+01	0.286398E+24	0.133175E-01	0.316081E+03	0.306310E+03	0.295285E+03	0.124973E+04	0.426511E+00	0.408491E-05	0.120015E+09	0.171860E+32	0.440346E+00	0.314460E+03	0.303634E+03	0.296318E+03	0.559654E+00	0.317356E+03	0.308415E+03	0.294416E+03	1.152235E+01	1.640900E-02	1.454132E+01	3.031850E+00	1.464080E+02	1.186660E-02	1.080320E+03
0.235000E-02	0.500000E-04	0.148476E+03	0.168345E+01	0.289766E+24	0.134741E-01	0.310912E+03	0.305098E+03	0.294820E+03	0.124375E+04	0.413053E+00	0.402078E-05	0.120403E+09	0.174443E+32	0.465301E+00	0.307519E+03	0.305405E+03	0.295654E+03	0.534699E+00	0.313864E+03	0.304830E+03	0.294052E+03	1.315394E+01	1.218000E-03	1.425680E+01	1.108349E+00	1.472280E+02	1.181110E-02	1.078230E+03
0.245000E-02	0.500000E-04	0.142863E+03	0.563208E+00	0.286990E+24	0.133450E-01	0.309923E+03	0.301914E+03	0.295081E+03	0.122792E+04	0.398050E+00	0.405645E-05	0.119512E+09	0.171493E+32	0.476833E+00	0.306722E+03	0.300581E+03	0.295681E+03	0.523167E+00	0.312840E+03	0.303129E+03	0.294510E+03	1.387503E+01	6.119000E-03	1.358752E+01	2.893302E-01	1.452620E+02	1.161350E-02	1.071690E+03
0.255000E-02	0.500000E-04	0.135385E+03	0.357182E+01	0.287172E+24	0.133535E-01	0.302003E+03	0.295681E+03	0.295464E+03	0.119730E+04	0.382257E+00	0.402774E-05	0.119486E+09	0.171565E+32	0.481070E+00	0.299424E+03	0.293769E+03	0.296146E+03	0.518930E+00	0.304395E+03	0.297453E+03	0.294801E+03	1.443569E+01	2.994800E-02	1.147732E+01	2.971062E+00	1.482120E+02	1.155560E-02	1.067340E+03
0.265000E-02	0.500000E-04	0.135681E+03	-0.285780E+00	0.279683E+24	0.130052E-01	0.302389E+03	0.298249E+03	0.295341E+03	0.116756E+04	0.382718E+00	0.413692E-05	0.116639E+09	0.163109E+32	0.487152E+00	0.300161E+03	0.295537E+03	0.295408E+03	0.512848E+00	0.304505E+03	0.300825E+03	0.295276E+03	1.125284E+01	2.780200E-02	8.764064E+00	2.495350E+00	1.473650E+02	1.161970E-02	1.069530E+03
0.275000E-02	0.500000E-04	0.136509E+03	-0.815961E-01	0.278578E+24	0.129539E-01	0.302426E+03	0.295528E+03	0.295362E+03	0.116309E+04	0.385028E+00	0.415346E-05	0.114592E+09	0.159614E+32	0.480480E+00	0.301184E+03	0.295503E+03	0.295061E+03	0.519520E+00	0.303574E+03	0.295551E+03	0.295634E+03	9.731358E+00	1.782300E-02	7.962952E+00	1.771385E+00	1.440900E+02	1.175180E-02	1.074020E+03
0.285000E-02	0.500000E-04	0.129468E+03	-0.219983E+01	0.283876E+24	0.132002E-01	0.298635E+03	0.294135E+03	0.295095E+03	0.117035E+04	0.367533E+00	0.406312E-05	0.116542E+09	0.165417E+32	0.477897E+00	0.298077E+03	0.294088E+03	0.293685E+03	0.522103E+00	0.299145E+03	0.294178E+03	0.296271E+03	1.119729E+01	2.758900E-02	8.986407E+00	2.215706E+00	1.407480E+02	1.180050E-02	1.069700E+03
0.295000E-02	0.500000E-04	0.129185E+03	-0.121051E+00	0.287122E+24	0.133512E-01	0.300452E+03	0.294122E+03	0.295625E+03	0.119094E+04	0.365565E+00	0.402328E-05	0.118785E+09	0.170529E+32	0.481482E+00	0.300387E+03	0.297092E+03	0.294062E+03	0.518518E+00	0.300513E+03	0.291364E+03	0.296936E+03	1.541490E+01	2.620200E-02	1.173114E+01	3.700558E+00	1.410300E+02	1.144040E-02	1.058970E+03
0.305000E-02	0.500000E-04	0.125061E+03	0.251921E+01	0.288801E+24	0.134293E-01	0.295764E+03	0.290051E+03	0.294827E+03	0.117922E+04	0.356763E+00	0.398419E-05	0.118650E+09	0.171331E+32	0.493046E+00	0.294909E+03	0.289277E+03	0.293226E+03	0.506954E+00	0.296595E+03	0.290803E+03	0.296226E+03	1.470133E+01	2.659800E-02	1.075471E+01	3.961676E+00	1.371020E+02	1.159020E-02	1.058870E+03
0.315000E-02	0.500000E-04	0.124401E+03	0.321397E+01	0.281352E+24	0.130829E-01	0.299954E+03	0.293760E+03	0.294575E+03	0.116507E+04	0.352436E+00	0.410408E-05	0.115543E+09	0.162542E+32	0.468328E+00	0.299320E+03	0.294093E+03	0.292248E+03	0.531672E+00	0.300512E+03	0.293466E+03	0.296345E+03	1.183795E+01	2.816300E-02	8.300220E+00	3.545242E+00	1.367760E+02	1.162070E-02	1.072220E+03
0.325000E-02	0.500000E-04	0.122515E+03	-0.476431E+00	0.283810E+24	0.131972E-01	0.297985E+03	0.293193E+03	0.294928E+03	0.116754E+04	0.348125E+00	0.406184E-05	0.116239E+09	0.164948E+32	0.476824E+00	0.296567E+03	0.295411E+03	0.292974E+03	0.523176E+00	0.299276E+03	0.291172E+03	0.296499E+03	1.342778E+01	3.370800E-02	9.381025E+00	4.059075E+00	1.371280E+02	1.153660E-02	1.062920E+03
0.335000E-02	0.500000E-04	0.121480E+03	-0.181349E+01	0.282980E+24	0.131586E-01	0.295439E+03	0.290611E+03	0.295579E+03	0.115418E+04	0.346706E+00	0.406502E-05	0.116550E+09	0.164906E+32	0.467217E+00	0.296666E+03	0.292492E+03	0.292769E+03	0.532783E+00	0.294363E+03	0.288961E+03	0.297651E+03	1.388186E+01	3.720600E-02	8.030641E+00	5.866921E+00	1.385380E+02	1.145050E-02	1.065070E+03
0.345000E-02	0.500000E-04	0.120565E+03	0.468951E+01	0.284841E+24	0.132451E-01	0.293680E+03	0.287885E+03	0.295250E+03	0.115485E+04	0.345345E+00	0.403245E-05	0.117505E+09	0.167351E+32	0.464374E+00	0.292636E+03	0.288496E+03	0.292703E+03	0.535626E+00	0.294585E+03	0.287355E+03	0.297136E+03	1.474420E+01	3.303800E-02	9.141864E+00	5.621283E+00	1.359460E+02	1.142630E-02	1.053890E+03
0.355000E-02	0.500000E-04	0.121856E+03	0.136424E+01	0.279981E+24	0.130191E-01	0.293919E+03	0.290514E+03	0.294507E+03	0.113607E+04	0.348659E+00	0.410328E-05	0.115078E+09	0.161098E+32	0.459374E+00	0.294535E+03	0.288374E+03	0.290643E+03	0.540626E+00	0.293395E+03	0.292332E+03	0.297110E+03	1.276168E+01	2.213300E-02	8.389165E+00	4.384265E+00	1.324720E+02	1.145730E-02	1.044600E+03
0.365000E-02	0.500000E-04	0.126683E+03	-0.293868E+01	0.273293E+24	0.127081E-01	0.296531E+03	0.291286E+03	0.294830E+03	0.111879E+04	0.360946E+00	0.421300E-05	0.111348E+09	0.152152E+32	0.451933E+00	0.295639E+03	0.293067E+03	0.290773E+03	0.548067E+00	0.297266E+03	0.289817E+03	0.297464E+03	1.086682E+01	1.271900E-02	6.870155E+00	4.004435E+00	1.338360E+02	1.139830E-02	1.044480E+03