TITLE=" Box                                                                     /                                                                         "
VARIABLES="X",        "Y",      "Vx   ",      "Vy   ",      "Nden ",      "Rho  ",      "Ttrn ",      "Trot ",      "Tvib ",      "Press",      "Ma   ",      "Lambd",      "Relac",      "Coll ",      "frac1",      "Ttrn1",      "Trot1",      "Tvib1",      "frac2",      "Ttrn2",      "Trot2",      "Tvib2"
ZONE T="DSMC,BG", I=  200, J=   50, F=POINT
 -0.395000E-02  0.500000E-04  0.801495E+03  0.254497E+02  0.128938E+25  0.599560E-01  0.100095E+03  0.839373E+02  0.233743E+03  0.178172E+04  0.393144E+01  0.680653E-06  0.385292E+09  0.248393E+33  0.000000E+00  0.000000E+00  0.000000E+00  0.000000E+00  0.100000E+01  0.100095E+03  0.839373E+02  0.233743E+03
 -0.385000E-02  0.500000E-04  0.740489E+03  0.674369E+02  0.139611E+25  0.649190E-01  0.144218E+03  0.116174E+03  0.246285E+03  0.277964E+04  0.303697E+01  0.688714E-06  0.478200E+09  0.333809E+33  0.000000E+00  0.000000E+00  0.000000E+00  0.000000E+00  0.100000E+01  0.144218E+03  0.116174E+03  0.246285E+03
 -0.375000E-02  0.500000E-04  0.712659E+03  0.892474E+02  0.138739E+25  0.645134E-01  0.159725E+03  0.130615E+03  0.250393E+03  0.305927E+04  0.278749E+01  0.710966E-06  0.530631E+09  0.368095E+33  0.000000E+00  0.000000E+00  0.000000E+00  0.000000E+00  0.100000E+01  0.159725E+03  0.130615E+03  0.250393E+03
 -0.365000E-02  0.500000E-04  0.673932E+03  0.742522E+02  0.111742E+25  0.519599E-01  0.185528E+03  0.149017E+03  0.257466E+03  0.286202E+04  0.244158E+01  0.916410E-06  0.460004E+09  0.257008E+33  0.000000E+00  0.000000E+00  0.000000E+00  0.000000E+00  0.100000E+01  0.185528E+03  0.149017E+03  0.257466E+03
 -0.355000E-02  0.500000E-04  0.624620E+03  0.540411E+02  0.866231E+24  0.402797E-01  0.213650E+03  0.171038E+03  0.264742E+03  0.255497E+04  0.210389E+01  0.122460E-05  0.356845E+09  0.154555E+33  0.000000E+00  0.000000E+00  0.000000E+00  0.000000E+00  0.100000E+01  0.213650E+03  0.171038E+03  0.264742E+03
 -0.345000E-02  0.500000E-04  0.581646E+03  0.398472E+02  0.707655E+24  0.329060E-01  0.234570E+03  0.189898E+03  0.270114E+03  0.229162E+04  0.186715E+01  0.153444E-05  0.292663E+09  0.103552E+33  0.000000E+00  0.000000E+00  0.000000E+00  0.000000E+00  0.100000E+01  0.234570E+03  0.189898E+03  0.270114E+03
 -0.335000E-02  0.500000E-04  0.539109E+03  0.295787E+02  0.609911E+24  0.283608E-01  0.253050E+03  0.207489E+03  0.274473E+03  0.213069E+04  0.166481E+01  0.181442E-05  0.249595E+09  0.761154E+32  0.000000E+00  0.000000E+00  0.000000E+00  0.000000E+00  0.100000E+01  0.253050E+03  0.207489E+03  0.274473E+03
 -0.325000E-02  0.500000E-04  0.501323E+03  0.228907E+02  0.544769E+24  0.253318E-01  0.267100E+03  0.222060E+03  0.277839E+03  0.200880E+04  0.150616E+01  0.205901E-05  0.221870E+09  0.604340E+32  0.000000E+00  0.000000E+00  0.000000E+00  0.000000E+00  0.100000E+01  0.267100E+03  0.222060E+03  0.277839E+03
 -0.315000E-02  0.500000E-04  0.469465E+03  0.179859E+02  0.500067E+24  0.232531E-01  0.275879E+03  0.234076E+03  0.280319E+03  0.190456E+04  0.138740E+01  0.226128E-05  0.203103E+09  0.507826E+32  0.000000E+00  0.000000E+00  0.000000E+00  0.000000E+00  0.100000E+01  0.275879E+03  0.234076E+03  0.280319E+03
 -0.305000E-02  0.500000E-04  0.442664E+03  0.148066E+02  0.465824E+24  0.216608E-01  0.284191E+03  0.242734E+03  0.282594E+03  0.182760E+04  0.128870E+01  0.244559E-05  0.189581E+09  0.441556E+32  0.000000E+00  0.000000E+00  0.000000E+00  0.000000E+00  0.100000E+01  0.284191E+03  0.242734E+03  0.282594E+03
 -0.295000E-02  0.500000E-04  0.410951E+03  0.157921E+02  0.446153E+24  0.207461E-01  0.292814E+03  0.254057E+03  0.284197E+03  0.180353E+04  0.117884E+01  0.257257E-05  0.182256E+09  0.406570E+32  0.000000E+00  0.000000E+00  0.000000E+00  0.000000E+00  0.100000E+01  0.292814E+03  0.254057E+03  0.284197E+03
 -0.285000E-02  0.500000E-04  0.392488E+03  0.110744E+02  0.416046E+24  0.193462E-01  0.295776E+03  0.259700E+03  0.285626E+03  0.169884E+04  0.111984E+01  0.276568E-05  0.169832E+09  0.353290E+32  0.000000E+00  0.000000E+00  0.000000E+00  0.000000E+00  0.100000E+01  0.295776E+03  0.259700E+03  0.285626E+03
 -0.275000E-02  0.500000E-04  0.375606E+03  0.885088E+01  0.395104E+24  0.183723E-01  0.298156E+03  0.265519E+03  0.286999E+03  0.162631E+04  0.106726E+01  0.291812E-05  0.161532E+09  0.319109E+32  0.000000E+00  0.000000E+00  0.000000E+00  0.000000E+00  0.100000E+01  0.298156E+03  0.265519E+03  0.286999E+03
 -0.265000E-02  0.500000E-04  0.359283E+03  0.781516E+01  0.382670E+24  0.177941E-01  0.299930E+03  0.268734E+03  0.287775E+03  0.158450E+04  0.101782E+01  0.301741E-05  0.155979E+09  0.298441E+32  0.000000E+00  0.000000E+00  0.000000E+00  0.000000E+00  0.100000E+01  0.299930E+03  0.268734E+03  0.287775E+03
 -0.255000E-02  0.500000E-04  0.338127E+03  0.934424E+01  0.376245E+24  0.174954E-01  0.302907E+03  0.273086E+03  0.288237E+03  0.157336E+04  0.953303E+00  0.307652E-05  0.153793E+09  0.289319E+32  0.000000E+00  0.000000E+00  0.000000E+00  0.000000E+00  0.100000E+01  0.302907E+03  0.273086E+03  0.288237E+03
 -0.245000E-02  0.500000E-04  0.324890E+03  0.744240E+01  0.362522E+24  0.168573E-01  0.303921E+03  0.276012E+03  0.289189E+03  0.152105E+04  0.914346E+00  0.319564E-05  0.148318E+09  0.268844E+32  0.000000E+00  0.000000E+00  0.000000E+00  0.000000E+00  0.100000E+01  0.303921E+03  0.276012E+03  0.289189E+03
 -0.235000E-02  0.500000E-04  0.314116E+03  0.520449E+01  0.352832E+24  0.164067E-01  0.304100E+03  0.278068E+03  0.289358E+03  0.148127E+04  0.883654E+00  0.328389E-05  0.143887E+09  0.253840E+32  0.000000E+00  0.000000E+00  0.000000E+00  0.000000E+00  0.100000E+01  0.304100E+03  0.278068E+03  0.289358E+03
 -0.225000E-02  0.500000E-04  0.302100E+03  0.449211E+01  0.346969E+24  0.161341E-01  0.304815E+03  0.279779E+03  0.290013E+03  0.146008E+04  0.848831E+00  0.334134E-05  0.142317E+09  0.246898E+32  0.000000E+00  0.000000E+00  0.000000E+00  0.000000E+00  0.100000E+01  0.304815E+03  0.279779E+03  0.290013E+03
 -0.215000E-02  0.500000E-04  0.290042E+03  0.443284E+01  0.343020E+24  0.159504E-01  0.306401E+03  0.282950E+03  0.290519E+03  0.145097E+04  0.812845E+00  0.338420E-05  0.140942E+09  0.241729E+32  0.000000E+00  0.000000E+00  0.000000E+00  0.000000E+00  0.100000E+01  0.306401E+03  0.282950E+03  0.290519E+03
 -0.205000E-02  0.500000E-04  0.284795E+03  0.406027E+01  0.330980E+24  0.153906E-01  0.306646E+03  0.285709E+03  0.291112E+03  0.140116E+04  0.797808E+00  0.350801E-05  0.136170E+09  0.225348E+32  0.000000E+00  0.000000E+00  0.000000E+00  0.000000E+00  0.100000E+01  0.306646E+03  0.285709E+03  0.291112E+03
 -0.195000E-02  0.500000E-04  0.271617E+03  0.494696E+01  0.332583E+24  0.154651E-01  0.308848E+03  0.288718E+03  0.291011E+03  0.141806E+04  0.758223E+00  0.349735E-05  0.136651E+09  0.227240E+32  0.000000E+00  0.000000E+00  0.000000E+00  0.000000E+00  0.100000E+01  0.308848E+03  0.288718E+03  0.291011E+03
 -0.185000E-02  0.500000E-04  0.264608E+03  0.415511E+01  0.324999E+24  0.151124E-01  0.308193E+03  0.287981E+03  0.291110E+03  0.138278E+04  0.739411E+00  0.357707E-05  0.132947E+09  0.216039E+32  0.000000E+00  0.000000E+00  0.000000E+00  0.000000E+00  0.100000E+01  0.308193E+03  0.287981E+03  0.291110E+03
 -0.175000E-02  0.500000E-04  0.254949E+03  0.407556E+01  0.323628E+24  0.150487E-01  0.307925E+03  0.287814E+03  0.291635E+03  0.137575E+04  0.712733E+00  0.359144E-05  0.133118E+09  0.215404E+32  0.000000E+00  0.000000E+00  0.000000E+00  0.000000E+00  0.100000E+01  0.307925E+03  0.287814E+03  0.291635E+03
 -0.165000E-02  0.500000E-04  0.247928E+03  0.416515E+01  0.320330E+24  0.148953E-01  0.307933E+03  0.290733E+03  0.292340E+03  0.136177E+04  0.693106E+00  0.362844E-05  0.132138E+09  0.211639E+32  0.000000E+00  0.000000E+00  0.000000E+00  0.000000E+00  0.100000E+01  0.307933E+03  0.290733E+03  0.292340E+03
 -0.155000E-02  0.500000E-04  0.237612E+03  0.494356E+01  0.319176E+24  0.148417E-01  0.308734E+03  0.292344E+03  0.292240E+03  0.136039E+04  0.663452E+00  0.364392E-05  0.131900E+09  0.210496E+32  0.000000E+00  0.000000E+00  0.000000E+00  0.000000E+00  0.100000E+01  0.308734E+03  0.292344E+03  0.292240E+03
 -0.145000E-02  0.500000E-04  0.229710E+03  0.261506E+01  0.314891E+24  0.146424E-01  0.309707E+03  0.293548E+03  0.292162E+03  0.134636E+04  0.640285E+00  0.369641E-05  0.130151E+09  0.204916E+32  0.000000E+00  0.000000E+00  0.000000E+00  0.000000E+00  0.100000E+01  0.309707E+03  0.293548E+03  0.292162E+03
 -0.135000E-02  0.500000E-04  0.222345E+03  0.538973E+01  0.310832E+24  0.144537E-01  0.311724E+03  0.295781E+03  0.292375E+03  0.133766E+04  0.617889E+00  0.375076E-05  0.128749E+09  0.200097E+32  0.000000E+00  0.000000E+00  0.000000E+00  0.000000E+00  0.100000E+01  0.311724E+03  0.295781E+03  0.292375E+03
 -0.125000E-02  0.500000E-04  0.218093E+03  0.135144E+01  0.306413E+24  0.142482E-01  0.311052E+03  0.295848E+03  0.292837E+03  0.131580E+04  0.606561E+00  0.380280E-05  0.126273E+09  0.193459E+32  0.000000E+00  0.000000E+00  0.000000E+00  0.000000E+00  0.100000E+01  0.311052E+03  0.295848E+03  0.292837E+03
 -0.115000E-02  0.500000E-04  0.213521E+03  0.207958E+01  0.307707E+24  0.143084E-01  0.307149E+03  0.293748E+03  0.293275E+03  0.130477E+04  0.597623E+00  0.377488E-05  0.126901E+09  0.195242E+32  0.000000E+00  0.000000E+00  0.000000E+00  0.000000E+00  0.100000E+01  0.307149E+03  0.293748E+03  0.293275E+03
 -0.105000E-02  0.500000E-04  0.210251E+03  0.569724E+00  0.303734E+24  0.141236E-01  0.306957E+03  0.292828E+03  0.292952E+03  0.128712E+04  0.588628E+00  0.382366E-05  0.125108E+09  0.189998E+32  0.000000E+00  0.000000E+00  0.000000E+00  0.000000E+00  0.100000E+01  0.306957E+03  0.292828E+03  0.292952E+03
 -0.950000E-03  0.500000E-04  0.205320E+03  0.253053E+01  0.303115E+24  0.140948E-01  0.306493E+03  0.291954E+03  0.293276E+03  0.128255E+04  0.575299E+00  0.383002E-05  0.124768E+09  0.189095E+32  0.000000E+00  0.000000E+00  0.000000E+00  0.000000E+00  0.100000E+01  0.306493E+03  0.291954E+03  0.293276E+03
 -0.850000E-03  0.500000E-04  0.199533E+03  0.192053E+01  0.304153E+24  0.141431E-01  0.304990E+03  0.290678E+03  0.293737E+03  0.128064E+04  0.560446E+00  0.381226E-05  0.124758E+09  0.189728E+32  0.000000E+00  0.000000E+00  0.000000E+00  0.000000E+00  0.100000E+01  0.304990E+03  0.290678E+03  0.293737E+03
 -0.750000E-03  0.500000E-04  0.197985E+03  0.227718E+01  0.299691E+24  0.139356E-01  0.305983E+03  0.291505E+03  0.293478E+03  0.126596E+04  0.555205E+00  0.387216E-05  0.123635E+09  0.185261E+32  0.000000E+00  0.000000E+00  0.000000E+00  0.000000E+00  0.100000E+01  0.305983E+03  0.291505E+03  0.293478E+03
 -0.650000E-03  0.500000E-04  0.196885E+03  0.534850E+00  0.298017E+24  0.138578E-01  0.304475E+03  0.291916E+03  0.293521E+03  0.125268E+04  0.553451E+00  0.388911E-05  0.122577E+09  0.182650E+32  0.000000E+00  0.000000E+00  0.000000E+00  0.000000E+00  0.100000E+01  0.304475E+03  0.291916E+03  0.293521E+03
 -0.550000E-03  0.500000E-04  0.193145E+03  0.237757E+01  0.296078E+24  0.137676E-01  0.302938E+03  0.291960E+03  0.293862E+03  0.123825E+04  0.544353E+00  0.390963E-05  0.121588E+09  0.179997E+32  0.000000E+00  0.000000E+00  0.000000E+00  0.000000E+00  0.100000E+01  0.302938E+03  0.291960E+03  0.293863E+03
 -0.450000E-03  0.500000E-04  0.190850E+03  0.167071E+01  0.292792E+24  0.136148E-01  0.304460E+03  0.293953E+03  0.294025E+03  0.123066E+04  0.536518E+00  0.395845E-05  0.120887E+09  0.176974E+32  0.000000E+00  0.000000E+00  0.000000E+00  0.000000E+00  0.100000E+01  0.304460E+03  0.293953E+03  0.294025E+03
 -0.350000E-03  0.500000E-04  0.196943E+03  0.289879E+00  0.279686E+24  0.130054E-01  0.302930E+03  0.292022E+03  0.294297E+03  0.116967E+04  0.555022E+00  0.413874E-05  0.114930E+09  0.160721E+32  0.000000E+00  0.000000E+00  0.000000E+00  0.000000E+00  0.100000E+01  0.302930E+03  0.292022E+03  0.294297E+03
 -0.250000E-03  0.500000E-04  0.200448E+03 -0.237506E+01  0.276479E+24  0.128563E-01  0.302371E+03  0.289702E+03  0.293942E+03  0.115412E+04  0.565463E+00  0.418481E-05  0.113898E+09  0.157452E+32  0.000000E+00  0.000000E+00  0.000000E+00  0.000000E+00  0.100000E+01  0.302371E+03  0.289702E+03  0.293942E+03
 -0.150000E-03  0.500000E-04  0.208476E+03 -0.404485E+01  0.272643E+24  0.126779E-01  0.297564E+03  0.287280E+03  0.294339E+03  0.112001E+04  0.592908E+00  0.422672E-05  0.112188E+09  0.152936E+32  0.000000E+00  0.000000E+00  0.000000E+00  0.000000E+00  0.100000E+01  0.297564E+03  0.287280E+03  0.294339E+03
 -0.499999E-04  0.500000E-04  0.238010E+03 -0.111520E+02  0.248074E+24  0.115354E-01  0.293405E+03  0.282645E+03  0.293855E+03  0.100484E+04  0.682303E+00  0.462899E-05  0.103446E+09  0.128311E+32  0.317453E-03  0.442997E+03  0.235432E+03  0.293172E+03  0.999683E+00  0.293357E+03  0.282660E+03  0.293855E+03
  0.499999E-04  0.500000E-04  0.457334E+03  0.111112E+02  0.390038E+24  0.181368E-01  0.246045E+03  0.193055E+03  0.288297E+03  0.132486E+04  0.143052E+01  0.280077E-05  0.160181E+09  0.312384E+32  0.511295E+00  0.186238E+03  0.143831E+03  0.245514E+03  0.488705E+00  0.308617E+03  0.244554E+03  0.293829E+03
  0.150000E-03  0.500000E-04  0.414143E+03  0.356913E+02  0.440896E+24  0.205017E-01  0.256436E+03  0.216443E+03  0.285772E+03  0.156086E+04  0.127323E+01  0.251233E-05  0.200062E+09  0.441032E+32  0.542796E+00  0.218829E+03  0.185987E+03  0.257858E+03  0.457204E+00  0.301083E+03  0.252601E+03  0.293433E+03
  0.250000E-03  0.500000E-04  0.370767E+03  0.275192E+02  0.437066E+24  0.203236E-01  0.268973E+03  0.229915E+03  0.286041E+03  0.162295E+04  0.111193E+01  0.256794E-05  0.198437E+09  0.433649E+32  0.536122E+00  0.241246E+03  0.206968E+03  0.265642E+03  0.463878E+00  0.301018E+03  0.256437E+03  0.293733E+03
  0.350000E-03  0.500000E-04  0.329417E+03  0.189638E+02  0.415914E+24  0.193400E-01  0.280261E+03  0.246251E+03  0.287232E+03  0.160922E+04  0.966770E+00  0.272798E-05  0.185578E+09  0.385922E+32  0.528295E+00  0.259539E+03  0.224301E+03  0.271964E+03  0.471705E+00  0.303468E+03  0.270833E+03  0.294393E+03
  0.450000E-03  0.500000E-04  0.297801E+03  0.129040E+02  0.397588E+24  0.184878E-01  0.286310E+03  0.257420E+03  0.287896E+03  0.157152E+04  0.864083E+00  0.286963E-05  0.176749E+09  0.351365E+32  0.524583E+00  0.269591E+03  0.238544E+03  0.275316E+03  0.475417E+00  0.304759E+03  0.278248E+03  0.294543E+03
  0.550000E-03  0.500000E-04  0.279622E+03  0.915891E+01  0.378235E+24  0.175879E-01  0.290217E+03  0.266359E+03  0.288658E+03  0.151542E+04  0.805532E+00  0.302707E-05  0.165815E+09  0.313585E+32  0.526338E+00  0.276551E+03  0.250336E+03  0.279205E+03  0.473662E+00  0.305402E+03  0.284164E+03  0.294546E+03
  0.650000E-03  0.500000E-04  0.258236E+03  0.833631E+01  0.371764E+24  0.172870E-01  0.291965E+03  0.270651E+03  0.289944E+03  0.149846E+04  0.741682E+00  0.308466E-05  0.161092E+09  0.299441E+32  0.514565E+00  0.281009E+03  0.256666E+03  0.281458E+03  0.485435E+00  0.303577E+03  0.285476E+03  0.295309E+03
  0.750000E-03  0.500000E-04  0.245329E+03  0.567041E+01  0.362453E+24  0.168541E-01  0.292296E+03  0.271332E+03  0.290115E+03  0.146259E+04  0.704035E+00  0.316497E-05  0.155295E+09  0.281435E+32  0.507840E+00  0.283518E+03  0.259218E+03  0.283402E+03  0.492160E+00  0.301354E+03  0.283832E+03  0.294673E+03
  0.850000E-03  0.500000E-04  0.234028E+03  0.418846E+01  0.356433E+24  0.165741E-01  0.294589E+03  0.275645E+03  0.290771E+03  0.144958E+04  0.668914E+00  0.322478E-05  0.153182E+09  0.272995E+32  0.503219E+00  0.286729E+03  0.267555E+03  0.284127E+03  0.496781E+00  0.302550E+03  0.283839E+03  0.295235E+03
  0.950000E-03  0.500000E-04  0.225497E+03  0.293656E+01  0.352584E+24  0.163951E-01  0.295469E+03  0.279761E+03  0.291503E+03  0.143821E+04  0.643522E+00  0.326245E-05  0.150936E+09  0.266088E+32  0.501843E+00  0.288273E+03  0.271864E+03  0.285963E+03  0.498157E+00  0.302717E+03  0.287717E+03  0.295445E+03
  0.105000E-02  0.500000E-04  0.217988E+03  0.362864E+01  0.346920E+24  0.161318E-01  0.293983E+03  0.279732E+03  0.291822E+03  0.140799E+04  0.623696E+00  0.331154E-05  0.146509E+09  0.254135E+32  0.490615E+00  0.286531E+03  0.270924E+03  0.286551E+03  0.509385E+00  0.301161E+03  0.288215E+03  0.295483E+03
  0.115000E-02  0.500000E-04  0.212438E+03  0.281400E+01  0.341713E+24  0.158896E-01  0.296366E+03  0.281407E+03  0.292544E+03  0.139810E+04  0.605337E+00  0.336883E-05  0.144721E+09  0.247264E+32  0.477149E+00  0.289635E+03  0.272896E+03  0.287583E+03  0.522851E+00  0.302508E+03  0.289175E+03  0.295890E+03
  0.125000E-02  0.500000E-04  0.202600E+03  0.292496E+01  0.343874E+24  0.159901E-01  0.295984E+03  0.282924E+03  0.292810E+03  0.140513E+04  0.577684E+00  0.334661E-05  0.145145E+09  0.249558E+32  0.473199E+00  0.289924E+03  0.276338E+03  0.288507E+03  0.526801E+00  0.301428E+03  0.288839E+03  0.295779E+03
  0.135000E-02  0.500000E-04  0.195994E+03  0.345182E+01  0.343938E+24  0.159931E-01  0.294531E+03  0.282436E+03  0.292484E+03  0.139849E+04  0.560255E+00  0.334190E-05  0.145184E+09  0.249671E+32  0.472288E+00  0.289057E+03  0.276234E+03  0.288264E+03  0.527712E+00  0.299429E+03  0.287988E+03  0.295398E+03
  0.145000E-02  0.500000E-04  0.189032E+03  0.114494E+01  0.344379E+24  0.160136E-01  0.295678E+03  0.285240E+03  0.292615E+03  0.140574E+04  0.539231E+00  0.334080E-05  0.145389E+09  0.250344E+32  0.467967E+00  0.288516E+03  0.279550E+03  0.289246E+03  0.532033E+00  0.301977E+03  0.290245E+03  0.295018E+03
  0.155000E-02  0.500000E-04  0.187578E+03  0.402764E+01  0.333664E+24  0.155154E-01  0.298262E+03  0.285008E+03  0.293311E+03  0.137390E+04  0.532875E+00  0.345565E-05  0.139885E+09  0.233373E+32  0.461550E+00  0.292416E+03  0.280174E+03  0.289686E+03  0.538450E+00  0.303273E+03  0.289152E+03  0.295801E+03
  0.165000E-02  0.500000E-04  0.184181E+03 -0.196184E+01  0.333001E+24  0.154846E-01  0.298109E+03  0.286527E+03  0.293231E+03  0.137047E+04  0.523266E+00  0.346209E-05  0.138863E+09  0.231207E+32  0.459803E+00  0.292423E+03  0.280819E+03  0.289762E+03  0.540197E+00  0.302949E+03  0.291385E+03  0.295619E+03
  0.175000E-02  0.500000E-04  0.178550E+03  0.376255E+01  0.339397E+24  0.157819E-01  0.294935E+03  0.284854E+03  0.293044E+03  0.138192E+04  0.510074E+00  0.338780E-05  0.141434E+09  0.240012E+32  0.450243E+00  0.290183E+03  0.280495E+03  0.289659E+03  0.549757E+00  0.298827E+03  0.288424E+03  0.295303E+03
  0.185000E-02  0.500000E-04  0.176131E+03  0.283533E+01  0.332816E+24  0.154760E-01  0.292740E+03  0.283071E+03  0.293477E+03  0.134504E+04  0.505001E+00  0.344837E-05  0.138409E+09  0.230325E+32  0.436772E+00  0.289013E+03  0.280165E+03  0.290073E+03  0.563228E+00  0.295629E+03  0.285326E+03  0.295636E+03
  0.195000E-02  0.500000E-04  0.174238E+03  0.123002E+01  0.329992E+24  0.153446E-01  0.292825E+03  0.282014E+03  0.293697E+03  0.133402E+04  0.499447E+00  0.347815E-05  0.136927E+09  0.225924E+32  0.423856E+00  0.290111E+03  0.277326E+03  0.290281E+03  0.576144E+00  0.294822E+03  0.285463E+03  0.295758E+03
  0.205000E-02  0.500000E-04  0.170874E+03  0.109853E+01  0.331901E+24  0.154334E-01  0.295322E+03  0.286626E+03  0.293710E+03  0.135317E+04  0.487728E+00  0.346547E-05  0.137768E+09  0.228627E+32  0.409199E+00  0.291091E+03  0.283741E+03  0.290084E+03  0.590801E+00  0.298252E+03  0.288623E+03  0.295756E+03
  0.215000E-02  0.500000E-04  0.167227E+03 -0.843412E-01  0.332418E+24  0.154574E-01  0.297012E+03  0.287869E+03  0.293712E+03  0.136304E+04  0.475949E+00  0.346503E-05  0.138018E+09  0.229399E+32  0.397807E+00  0.293233E+03  0.284610E+03  0.289530E+03  0.602193E+00  0.299508E+03  0.290023E+03  0.295906E+03
  0.225000E-02  0.500000E-04  0.163574E+03  0.292731E+01  0.330403E+24  0.153638E-01  0.297663E+03  0.288958E+03  0.293478E+03  0.135774E+04  0.465117E+00  0.348810E-05  0.137405E+09  0.226995E+32  0.387687E+00  0.295779E+03  0.288083E+03  0.289585E+03  0.612313E+00  0.298856E+03  0.289512E+03  0.295471E+03
  0.235000E-02  0.500000E-04  0.163458E+03  0.117617E+01  0.324448E+24  0.150868E-01  0.299044E+03  0.288010E+03  0.293765E+03  0.133946E+04  0.463651E+00  0.355624E-05  0.134715E+09  0.218540E+32  0.369194E+00  0.297165E+03  0.286057E+03  0.289474E+03  0.630806E+00  0.300144E+03  0.289154E+03  0.295765E+03
  0.245000E-02  0.500000E-04  0.161289E+03  0.150710E+01  0.324879E+24  0.151069E-01  0.297980E+03  0.289263E+03  0.294290E+03  0.133647E+04  0.458321E+00  0.354835E-05  0.134929E+09  0.219178E+32  0.356237E+00  0.295560E+03  0.287886E+03  0.289886E+03  0.643763E+00  0.299320E+03  0.290025E+03  0.296229E+03
  0.255000E-02  0.500000E-04  0.159334E+03  0.677377E+00  0.321342E+24  0.149424E-01  0.298757E+03  0.290902E+03  0.293631E+03  0.132536E+04  0.452162E+00  0.358975E-05  0.133747E+09  0.214892E+32  0.328111E+00  0.296741E+03  0.288635E+03  0.288574E+03  0.671889E+00  0.299741E+03  0.292010E+03  0.295548E+03
  0.265000E-02  0.500000E-04  0.161453E+03 -0.132438E+00  0.315644E+24  0.146775E-01  0.299350E+03  0.289324E+03  0.294024E+03  0.130445E+04  0.457717E+00  0.365635E-05  0.130937E+09  0.206647E+32  0.323692E+00  0.296347E+03  0.287040E+03  0.289586E+03  0.676308E+00  0.300787E+03  0.290417E+03  0.295725E+03
  0.275000E-02  0.500000E-04  0.159548E+03 -0.112544E+01  0.316777E+24  0.147301E-01  0.299283E+03  0.290915E+03  0.294267E+03  0.130883E+04  0.452378E+00  0.364308E-05  0.131208E+09  0.207819E+32  0.299387E+00  0.296361E+03  0.287225E+03  0.289497E+03  0.700613E+00  0.300532E+03  0.292491E+03  0.295886E+03
  0.285000E-02  0.500000E-04  0.158947E+03  0.133477E+01  0.315980E+24  0.146931E-01  0.301519E+03  0.291149E+03  0.294902E+03  0.131530E+04  0.449005E+00  0.365906E-05  0.131485E+09  0.207733E+32  0.282061E+00  0.298084E+03  0.288722E+03  0.288963E+03  0.717939E+00  0.302869E+03  0.292102E+03  0.296668E+03
  0.295000E-02  0.500000E-04  0.157937E+03  0.119066E+00  0.316994E+24  0.147402E-01  0.298722E+03  0.291670E+03  0.294767E+03  0.130727E+04  0.448219E+00  0.363888E-05  0.131344E+09  0.208176E+32  0.268192E+00  0.295423E+03  0.287986E+03  0.289133E+03  0.731808E+00  0.299931E+03  0.293020E+03  0.296357E+03
  0.305000E-02  0.500000E-04  0.155883E+03  0.251160E+00  0.315511E+24  0.146713E-01  0.297090E+03  0.289481E+03  0.295230E+03  0.129405E+04  0.443605E+00  0.365096E-05  0.130462E+09  0.205812E+32  0.257639E+00  0.292203E+03  0.284505E+03  0.288198E+03  0.742361E+00  0.298786E+03  0.291208E+03  0.297005E+03
  0.315000E-02  0.500000E-04  0.154526E+03 -0.177438E+01  0.316660E+24  0.147247E-01  0.296872E+03  0.289864E+03  0.294863E+03  0.129781E+04  0.439932E+00  0.363702E-05  0.130556E+09  0.206710E+32  0.249023E+00  0.290875E+03  0.283187E+03  0.285751E+03  0.750977E+00  0.298860E+03  0.292079E+03  0.296876E+03
  0.325000E-02  0.500000E-04  0.155141E+03  0.264985E+01  0.312974E+24  0.145533E-01  0.296491E+03  0.288954E+03  0.294701E+03  0.128106E+04  0.442002E+00  0.367868E-05  0.128925E+09  0.201750E+32  0.240509E+00  0.290289E+03  0.284163E+03  0.287170E+03  0.759491E+00  0.298455E+03  0.290472E+03  0.296406E+03
  0.335000E-02  0.500000E-04  0.150846E+03  0.104314E+01  0.310711E+24  0.144481E-01  0.295747E+03  0.288783E+03  0.294513E+03  0.126861E+04  0.430254E+00  0.370316E-05  0.128371E+09  0.199431E+32  0.225969E+00  0.290481E+03  0.287477E+03  0.286314E+03  0.774031E+00  0.297284E+03  0.289164E+03  0.296182E+03
  0.345000E-02  0.500000E-04  0.150780E+03  0.130790E+01  0.301448E+24  0.140173E-01  0.296781E+03  0.290030E+03  0.294897E+03  0.123509E+04  0.429320E+00  0.382025E-05  0.125353E+09  0.188938E+32  0.212146E+00  0.288949E+03  0.282746E+03  0.285834E+03  0.787854E+00  0.298890E+03  0.291991E+03  0.296546E+03
  0.355000E-02  0.500000E-04  0.149392E+03 -0.105147E+01  0.303383E+24  0.141073E-01  0.296127E+03  0.289975E+03  0.294830E+03  0.124028E+04  0.425833E+00  0.379382E-05  0.125663E+09  0.190620E+32  0.196170E+00  0.289968E+03  0.286925E+03  0.285642E+03  0.803830E+00  0.297630E+03  0.290719E+03  0.296345E+03
  0.365000E-02  0.500000E-04  0.147193E+03  0.144555E+01  0.305824E+24  0.142208E-01  0.294991E+03  0.288801E+03  0.295138E+03  0.124546E+04  0.420382E+00  0.375991E-05  0.126056E+09  0.192754E+32  0.179798E+00  0.287768E+03  0.281652E+03  0.284983E+03  0.820202E+00  0.296574E+03  0.290368E+03  0.296592E+03
  0.375000E-02  0.500000E-04  0.144493E+03  0.182363E+01  0.298393E+24  0.138753E-01  0.297751E+03  0.290781E+03  0.295332E+03  0.122657E+04  0.410767E+00  0.386255E-05  0.123788E+09  0.184688E+32  0.170654E+00  0.291775E+03  0.285532E+03  0.285546E+03  0.829346E+00  0.298981E+03  0.291860E+03  0.296672E+03
  0.385000E-02  0.500000E-04  0.146991E+03 -0.194503E+01  0.293259E+24  0.136365E-01  0.297842E+03  0.290830E+03  0.294855E+03  0.120583E+04  0.417809E+00  0.393045E-05  0.121762E+09  0.178540E+32  0.157283E+00  0.289467E+03  0.287104E+03  0.283472E+03  0.842717E+00  0.299406E+03  0.291526E+03  0.296183E+03
  0.395000E-02  0.500000E-04  0.147170E+03  0.102690E+01  0.296644E+24  0.137939E-01  0.295572E+03  0.286129E+03  0.294988E+03  0.121045E+04  0.419895E+00  0.387818E-05  0.122403E+09  0.181551E+32  0.150501E+00  0.287754E+03  0.281018E+03  0.284245E+03  0.849499E+00  0.296957E+03  0.287035E+03  0.296213E+03
  0.405000E-02  0.500000E-04  0.147075E+03  0.434068E+00  0.295375E+24  0.137350E-01  0.296552E+03  0.290147E+03  0.295394E+03  0.120927E+04  0.418919E+00  0.389806E-05  0.121446E+09  0.179362E+32  0.140723E+00  0.288651E+03  0.283995E+03  0.282930E+03  0.859277E+00  0.297846E+03  0.291154E+03  0.296625E+03
  0.415000E-02  0.500000E-04  0.148358E+03 -0.764364E+00  0.288562E+24  0.134181E-01  0.300665E+03  0.293314E+03  0.295205E+03  0.119777E+04  0.419679E+00  0.400390E-05  0.119195E+09  0.171976E+32  0.126357E+00  0.296185E+03  0.291194E+03  0.278587E+03  0.873643E+00  0.301313E+03  0.293621E+03  0.296434E+03
  0.425000E-02  0.500000E-04  0.149221E+03 -0.127669E+01  0.288580E+24  0.134190E-01  0.298825E+03  0.290497E+03  0.295084E+03  0.119051E+04  0.423426E+00  0.399751E-05  0.119738E+09  0.172769E+32  0.122351E+00  0.294316E+03  0.289059E+03  0.278321E+03  0.877649E+00  0.299454E+03  0.290697E+03  0.296273E+03
  0.435000E-02  0.500000E-04  0.148652E+03  0.237040E+01  0.286804E+24  0.133364E-01  0.299142E+03  0.292039E+03  0.294718E+03  0.118444E+04  0.421628E+00  0.402330E-05  0.118582E+09  0.170049E+32  0.120664E+00  0.290764E+03  0.284810E+03  0.278941E+03  0.879336E+00  0.300292E+03  0.293030E+03  0.295864E+03
  0.445000E-02  0.500000E-04  0.145522E+03 -0.525138E+00  0.283622E+24  0.131884E-01  0.299730E+03  0.292147E+03  0.295203E+03  0.117360E+04  0.412294E+00  0.407045E-05  0.116950E+09  0.165848E+32  0.107612E+00  0.291331E+03  0.285155E+03  0.279578E+03  0.892388E+00  0.300743E+03  0.292991E+03  0.296214E+03
  0.455000E-02  0.500000E-04  0.141854E+03  0.796923E+00  0.283269E+24  0.131720E-01  0.299649E+03  0.293004E+03  0.295191E+03  0.117182E+04  0.401959E+00  0.407525E-05  0.117571E+09  0.166521E+32  0.990323E-01  0.292253E+03  0.289363E+03  0.278390E+03  0.900968E+00  0.300462E+03  0.293404E+03  0.296138E+03
  0.465000E-02  0.500000E-04  0.139061E+03  0.876215E+00  0.281140E+24  0.130730E-01  0.298403E+03  0.290934E+03  0.294881E+03  0.115818E+04  0.394870E+00  0.410183E-05  0.116127E+09  0.163239E+32  0.942471E-01  0.290717E+03  0.283795E+03  0.277383E+03  0.905753E+00  0.299202E+03  0.291677E+03  0.295789E+03
  0.475000E-02  0.500000E-04  0.138476E+03  0.157060E+01  0.277320E+24  0.128954E-01  0.299589E+03  0.293136E+03  0.294499E+03  0.114698E+04  0.392446E+00  0.416248E-05  0.114710E+09  0.159057E+32  0.864065E-01  0.294292E+03  0.283001E+03  0.275652E+03  0.913594E+00  0.300090E+03  0.294095E+03  0.295340E+03
  0.485000E-02  0.500000E-04  0.138802E+03  0.370865E-01  0.273148E+24  0.127014E-01  0.301958E+03  0.294084E+03  0.295036E+03  0.113866E+04  0.391800E+00  0.423434E-05  0.112973E+09  0.154291E+32  0.874328E-01  0.289991E+03  0.283371E+03  0.275622E+03  0.912567E+00  0.303104E+03  0.295111E+03  0.295895E+03
  0.495000E-02  0.500000E-04  0.140179E+03  0.347303E+00  0.270808E+24  0.125926E-01  0.300172E+03  0.294878E+03  0.294955E+03  0.112223E+04  0.396864E+00  0.426465E-05  0.111954E+09  0.151590E+32  0.728699E-01  0.298029E+03  0.284778E+03  0.275671E+03  0.927130E+00  0.300340E+03  0.295672E+03  0.295662E+03
  0.505000E-02  0.500000E-04  0.138741E+03 -0.284800E+00  0.269667E+24  0.125395E-01  0.300474E+03  0.296137E+03  0.294656E+03  0.111862E+04  0.392593E+00  0.428377E-05  0.111586E+09  0.150455E+32  0.671001E-01  0.296779E+03  0.288641E+03  0.273981E+03  0.932900E+00  0.300740E+03  0.296676E+03  0.295312E+03
  0.515000E-02  0.500000E-04  0.138997E+03 -0.743952E+00  0.265962E+24  0.123672E-01  0.302124E+03  0.297252E+03  0.294452E+03  0.110931E+04  0.392247E+00  0.434939E-05  0.110542E+09  0.147000E+32  0.590387E-01  0.294818E+03  0.294048E+03  0.275472E+03  0.940961E+00  0.302583E+03  0.297453E+03  0.295016E+03
  0.525000E-02  0.500000E-04  0.138912E+03  0.221850E+00  0.266299E+24  0.123829E-01  0.300285E+03  0.294998E+03  0.294444E+03  0.110396E+04  0.393201E+00  0.433724E-05  0.110071E+09  0.146560E+32  0.562538E-01  0.288706E+03  0.283593E+03  0.274224E+03  0.943746E+00  0.300975E+03  0.295677E+03  0.294987E+03
  0.535000E-02  0.500000E-04  0.142453E+03  0.186049E+01  0.260169E+24  0.120978E-01  0.302610E+03  0.295186E+03  0.294801E+03  0.108689E+04  0.401706E+00  0.444800E-05  0.108209E+09  0.140763E+32  0.530026E-01  0.289912E+03  0.275477E+03  0.274257E+03  0.946997E+00  0.303320E+03  0.296289E+03  0.295314E+03
  0.545000E-02  0.500000E-04  0.139207E+03 -0.268751E+01  0.261308E+24  0.121508E-01  0.301519E+03  0.296067E+03  0.294913E+03  0.108772E+04  0.393300E+00  0.442463E-05  0.108236E+09  0.141414E+32  0.438213E-01  0.290640E+03  0.295172E+03  0.277493E+03  0.956179E+00  0.302018E+03  0.296108E+03  0.295319E+03