TITLE=" Box                                                                     /                                                                         "
VARIABLES="X",        "Y",      "Vx   ",      "Vy   ",      "Nden ",      "Rho  ",      "Ttrn ",      "Trot ",      "Tvib ",      "Press",      "Ma   ",      "Lambd",      "Relac",      "Coll ",      "frac1",      "Ttrn1",      "Trot1",      "Tvib1",      "frac2",      "Ttrn2",      "Trot2",      "Tvib2"
ZONE T="DSMC,BG", I=  200, J=   50, F=POINT
 -0.395000E-02  0.500000E-04  0.802310E+03  0.246464E+02  0.129032E+25  0.600000E-01  0.993857E+02  0.836055E+02  0.233181E+03  0.177040E+04  0.394933E+01  0.678947E-06  0.384933E+09  0.248344E+33  0.000000E+00  0.000000E+00  0.000000E+00  0.000000E+00  0.100000E+01  0.993857E+02  0.836055E+02  0.233181E+03
 -0.385000E-02  0.500000E-04  0.741382E+03  0.667611E+02  0.139603E+25  0.649152E-01  0.143723E+03  0.115802E+03  0.246103E+03  0.276994E+04  0.304558E+01  0.688163E-06  0.478275E+09  0.333842E+33  0.000000E+00  0.000000E+00  0.000000E+00  0.000000E+00  0.100000E+01  0.143723E+03  0.115802E+03  0.246103E+03
 -0.375000E-02  0.500000E-04  0.712495E+03  0.890726E+02  0.139247E+25  0.647497E-01  0.160566E+03  0.130454E+03  0.250583E+03  0.308665E+04  0.277946E+01  0.709302E-06  0.531293E+09  0.369904E+33  0.000000E+00  0.000000E+00  0.000000E+00  0.000000E+00  0.100000E+01  0.160566E+03  0.130454E+03  0.250583E+03
 -0.365000E-02  0.500000E-04  0.676746E+03  0.742798E+02  0.112123E+25  0.521371E-01  0.183902E+03  0.148354E+03  0.257372E+03  0.284662E+04  0.246247E+01  0.911289E-06  0.463649E+09  0.259928E+33  0.000000E+00  0.000000E+00  0.000000E+00  0.000000E+00  0.100000E+01  0.183902E+03  0.148354E+03  0.257372E+03
 -0.355000E-02  0.500000E-04  0.628757E+03  0.537122E+02  0.867977E+24  0.403609E-01  0.212003E+03  0.170569E+03  0.264475E+03  0.254038E+04  0.212584E+01  0.121978E-05  0.359414E+09  0.155981E+33  0.000000E+00  0.000000E+00  0.000000E+00  0.000000E+00  0.100000E+01  0.212003E+03  0.170569E+03  0.264475E+03
 -0.345000E-02  0.500000E-04  0.584151E+03  0.393322E+02  0.713552E+24  0.331802E-01  0.234881E+03  0.190592E+03  0.269993E+03  0.231379E+04  0.187379E+01  0.152226E-05  0.294600E+09  0.105106E+33  0.000000E+00  0.000000E+00  0.000000E+00  0.000000E+00  0.100000E+01  0.234881E+03  0.190592E+03  0.269993E+03
 -0.335000E-02  0.500000E-04  0.541448E+03  0.282940E+02  0.615272E+24  0.286101E-01  0.253087E+03  0.207447E+03  0.274374E+03  0.214974E+04  0.167168E+01  0.179868E-05  0.250965E+09  0.772058E+32  0.000000E+00  0.000000E+00  0.000000E+00  0.000000E+00  0.100000E+01  0.253087E+03  0.207447E+03  0.274374E+03
 -0.325000E-02  0.500000E-04  0.501331E+03  0.243807E+02  0.554399E+24  0.257796E-01  0.267506E+03  0.222674E+03  0.277632E+03  0.204742E+04  0.150525E+01  0.202401E-05  0.226450E+09  0.627719E+32  0.000000E+00  0.000000E+00  0.000000E+00  0.000000E+00  0.100000E+01  0.267506E+03  0.222674E+03  0.277632E+03
 -0.315000E-02  0.500000E-04  0.469406E+03  0.190075E+02  0.503563E+24  0.234157E-01  0.277409E+03  0.234983E+03  0.280343E+03  0.192851E+04  0.138352E+01  0.224869E-05  0.205471E+09  0.517338E+32  0.000000E+00  0.000000E+00  0.000000E+00  0.000000E+00  0.100000E+01  0.277409E+03  0.234983E+03  0.280343E+03
 -0.305000E-02  0.500000E-04  0.442618E+03  0.149152E+02  0.464268E+24  0.215884E-01  0.282823E+03  0.243487E+03  0.282551E+03  0.181273E+04  0.129169E+01  0.245083E-05  0.188370E+09  0.437270E+32  0.000000E+00  0.000000E+00  0.000000E+00  0.000000E+00  0.100000E+01  0.282823E+03  0.243487E+03  0.282551E+03
 -0.295000E-02  0.500000E-04  0.418625E+03  0.130987E+02  0.437501E+24  0.203438E-01  0.288304E+03  0.250642E+03  0.284049E+03  0.174132E+04  0.120991E+01  0.261328E-05  0.177444E+09  0.388160E+32  0.000000E+00  0.000000E+00  0.000000E+00  0.000000E+00  0.100000E+01  0.288304E+03  0.250642E+03  0.284049E+03
 -0.285000E-02  0.500000E-04  0.393222E+03  0.125149E+02  0.419758E+24  0.195188E-01  0.293782E+03  0.257943E+03  0.285059E+03  0.170244E+04  0.112586E+01  0.273659E-05  0.170778E+09  0.358426E+32  0.000000E+00  0.000000E+00  0.000000E+00  0.000000E+00  0.100000E+01  0.293782E+03  0.257943E+03  0.285059E+03
 -0.275000E-02  0.500000E-04  0.376825E+03  0.723590E+01  0.400590E+24  0.186274E-01  0.296992E+03  0.263018E+03  0.285964E+03  0.164246E+04  0.107272E+01  0.287534E-05  0.162263E+09  0.325004E+32  0.000000E+00  0.000000E+00  0.000000E+00  0.000000E+00  0.100000E+01  0.296992E+03  0.263018E+03  0.285964E+03
 -0.265000E-02  0.500000E-04  0.361900E+03  0.846162E+01  0.385906E+24  0.179446E-01  0.299413E+03  0.268948E+03  0.286636E+03  0.159515E+04  0.102615E+01  0.299081E-05  0.156289E+09  0.301564E+32  0.000000E+00  0.000000E+00  0.000000E+00  0.000000E+00  0.100000E+01  0.299413E+03  0.268948E+03  0.286636E+03
 -0.255000E-02  0.500000E-04  0.349132E+03  0.786654E+01  0.367194E+24  0.170745E-01  0.299920E+03  0.269133E+03  0.287474E+03  0.152037E+04  0.989094E+00  0.314455E-05  0.150044E+09  0.275477E+32  0.000000E+00  0.000000E+00  0.000000E+00  0.000000E+00  0.100000E+01  0.299920E+03  0.269133E+03  0.287474E+03
 -0.245000E-02  0.500000E-04  0.334893E+03  0.662212E+01  0.358217E+24  0.166571E-01  0.302567E+03  0.275118E+03  0.288249E+03  0.149629E+04  0.944540E+00  0.323045E-05  0.146395E+09  0.262206E+32  0.000000E+00  0.000000E+00  0.000000E+00  0.000000E+00  0.100000E+01  0.302567E+03  0.275118E+03  0.288249E+03
 -0.235000E-02  0.500000E-04  0.322416E+03  0.582869E+01  0.353243E+24  0.164258E-01  0.303116E+03  0.277070E+03  0.288706E+03  0.147820E+04  0.908497E+00  0.327741E-05  0.144433E+09  0.255100E+32  0.000000E+00  0.000000E+00  0.000000E+00  0.000000E+00  0.100000E+01  0.303116E+03  0.277070E+03  0.288706E+03
 -0.225000E-02  0.500000E-04  0.307580E+03  0.756288E+01  0.345765E+24  0.160781E-01  0.305502E+03  0.279991E+03  0.289438E+03  0.145829E+04  0.863420E+00  0.335486E-05  0.142316E+09  0.246040E+32  0.000000E+00  0.000000E+00  0.000000E+00  0.000000E+00  0.100000E+01  0.305502E+03  0.279991E+03  0.289438E+03
 -0.215000E-02  0.500000E-04  0.298728E+03  0.431252E+01  0.334996E+24  0.155773E-01  0.307194E+03  0.284745E+03  0.289692E+03  0.142069E+04  0.836095E+00  0.346750E-05  0.137572E+09  0.230430E+32  0.000000E+00  0.000000E+00  0.000000E+00  0.000000E+00  0.100000E+01  0.307194E+03  0.284745E+03  0.289692E+03
 -0.205000E-02  0.500000E-04  0.288669E+03  0.454608E+01  0.329050E+24  0.153008E-01  0.307917E+03  0.285113E+03  0.290077E+03  0.139876E+04  0.807007E+00  0.353223E-05  0.135557E+09  0.223026E+32  0.000000E+00  0.000000E+00  0.000000E+00  0.000000E+00  0.100000E+01  0.307917E+03  0.285113E+03  0.290077E+03
 -0.195000E-02  0.500000E-04  0.276511E+03  0.359156E+01  0.328823E+24  0.152903E-01  0.307389E+03  0.286786E+03  0.290601E+03  0.139540E+04  0.773652E+00  0.353316E-05  0.135127E+09  0.222165E+32  0.000000E+00  0.000000E+00  0.000000E+00  0.000000E+00  0.100000E+01  0.307389E+03  0.286786E+03  0.290601E+03
 -0.185000E-02  0.500000E-04  0.273873E+03  0.344622E+01  0.318168E+24  0.147948E-01  0.307819E+03  0.285594E+03  0.290636E+03  0.135207E+04  0.765733E+00  0.365276E-05  0.130521E+09  0.207638E+32  0.000000E+00  0.000000E+00  0.000000E+00  0.000000E+00  0.100000E+01  0.307819E+03  0.285594E+03  0.290636E+03
 -0.175000E-02  0.500000E-04  0.267759E+03  0.444874E+01  0.310792E+24  0.144518E-01  0.309436E+03  0.289316E+03  0.291344E+03  0.132767E+04  0.746722E+00  0.374435E-05  0.128263E+09  0.199316E+32  0.000000E+00  0.000000E+00  0.000000E+00  0.000000E+00  0.100000E+01  0.309436E+03  0.289316E+03  0.291344E+03
 -0.165000E-02  0.500000E-04  0.260420E+03  0.143158E+01  0.311743E+24  0.144961E-01  0.307644E+03  0.287981E+03  0.291483E+03  0.132402E+04  0.728278E+00  0.372750E-05  0.127884E+09  0.199334E+32  0.000000E+00  0.000000E+00  0.000000E+00  0.000000E+00  0.100000E+01  0.307644E+03  0.287981E+03  0.291483E+03
 -0.155000E-02  0.500000E-04  0.258538E+03  0.150835E+01  0.307587E+24  0.143028E-01  0.308302E+03  0.287826E+03  0.291203E+03  0.130916E+04  0.722246E+00  0.377989E-05  0.126584E+09  0.194677E+32  0.000000E+00  0.000000E+00  0.000000E+00  0.000000E+00  0.100000E+01  0.308302E+03  0.287826E+03  0.291203E+03
 -0.145000E-02  0.500000E-04  0.248356E+03  0.243428E+01  0.308163E+24  0.143296E-01  0.308600E+03  0.290803E+03  0.291715E+03  0.131288E+04  0.693487E+00  0.377373E-05  0.127478E+09  0.196420E+32  0.000000E+00  0.000000E+00  0.000000E+00  0.000000E+00  0.100000E+01  0.308600E+03  0.290803E+03  0.291715E+03
 -0.135000E-02  0.500000E-04  0.247671E+03  0.107703E+01  0.301399E+24  0.140151E-01  0.308397E+03  0.292912E+03  0.291876E+03  0.128322E+04  0.691774E+00  0.385779E-05  0.124253E+09  0.187249E+32  0.000000E+00  0.000000E+00  0.000000E+00  0.000000E+00  0.100000E+01  0.308397E+03  0.292912E+03  0.291876E+03
 -0.125000E-02  0.500000E-04  0.243138E+03  0.339196E+01  0.296386E+24  0.137819E-01  0.307477E+03  0.292146E+03  0.292066E+03  0.125811E+04  0.680188E+00  0.392012E-05  0.122091E+09  0.180930E+32  0.000000E+00  0.000000E+00  0.000000E+00  0.000000E+00  0.100000E+01  0.307477E+03  0.292146E+03  0.292066E+03
 -0.115000E-02  0.500000E-04  0.229497E+03  0.493402E+01  0.300323E+24  0.139650E-01  0.309142E+03  0.294333E+03  0.292456E+03  0.128173E+04  0.640383E+00  0.387395E-05  0.124529E+09  0.186994E+32  0.000000E+00  0.000000E+00  0.000000E+00  0.000000E+00  0.100000E+01  0.309142E+03  0.294333E+03  0.292456E+03
 -0.105000E-02  0.500000E-04  0.224867E+03  0.150709E+01  0.295708E+24  0.137504E-01  0.308581E+03  0.295290E+03  0.292871E+03  0.125974E+04  0.627902E+00  0.393262E-05  0.122048E+09  0.180453E+32  0.000000E+00  0.000000E+00  0.000000E+00  0.000000E+00  0.100000E+01  0.308581E+03  0.295290E+03  0.292871E+03
 -0.950000E-03  0.500000E-04  0.217004E+03  0.498636E+01  0.293889E+24  0.136658E-01  0.309590E+03  0.292205E+03  0.293083E+03  0.125608E+04  0.605103E+00  0.396020E-05  0.121126E+09  0.177988E+32  0.000000E+00  0.000000E+00  0.000000E+00  0.000000E+00  0.100000E+01  0.309590E+03  0.292205E+03  0.293083E+03
 -0.850000E-03  0.500000E-04  0.210276E+03  0.232480E+01  0.292537E+24  0.136030E-01  0.307201E+03  0.294093E+03  0.293178E+03  0.124066E+04  0.588499E+00  0.397080E-05  0.120730E+09  0.176590E+32  0.000000E+00  0.000000E+00  0.000000E+00  0.000000E+00  0.100000E+01  0.307201E+03  0.294093E+03  0.293178E+03
 -0.750000E-03  0.500000E-04  0.210984E+03  0.143228E+01  0.287342E+24  0.133614E-01  0.307920E+03  0.292990E+03  0.293613E+03  0.122148E+04  0.589769E+00  0.404494E-05  0.118512E+09  0.170267E+32  0.000000E+00  0.000000E+00  0.000000E+00  0.000000E+00  0.100000E+01  0.307920E+03  0.292990E+03  0.293613E+03
 -0.650000E-03  0.500000E-04  0.211290E+03 -0.959376E+00  0.280962E+24  0.130647E-01  0.308649E+03  0.293443E+03  0.293165E+03  0.119718E+04  0.589918E+00  0.413925E-05  0.115788E+09  0.162661E+32  0.000000E+00  0.000000E+00  0.000000E+00  0.000000E+00  0.100000E+01  0.308649E+03  0.293443E+03  0.293165E+03
 -0.550000E-03  0.500000E-04  0.208557E+03  0.857793E+00  0.282223E+24  0.131234E-01  0.307059E+03  0.293539E+03  0.292917E+03  0.119636E+04  0.583794E+00  0.411544E-05  0.116086E+09  0.163810E+32  0.000000E+00  0.000000E+00  0.000000E+00  0.000000E+00  0.100000E+01  0.307059E+03  0.293539E+03  0.292917E+03
 -0.450000E-03  0.500000E-04  0.208275E+03  0.194690E+01  0.277834E+24  0.129193E-01  0.308056E+03  0.295735E+03  0.292864E+03  0.118159E+04  0.582079E+00  0.418383E-05  0.114480E+09  0.159033E+32  0.000000E+00  0.000000E+00  0.000000E+00  0.000000E+00  0.100000E+01  0.308056E+03  0.295735E+03  0.292864E+03
 -0.350000E-03  0.500000E-04  0.206296E+03  0.944227E-01  0.273989E+24  0.127405E-01  0.310212E+03  0.297065E+03  0.293637E+03  0.117339E+04  0.574517E+00  0.424996E-05  0.113444E+09  0.155413E+32  0.000000E+00  0.000000E+00  0.000000E+00  0.000000E+00  0.100000E+01  0.310212E+03  0.297065E+03  0.293637E+03
 -0.250000E-03  0.500000E-04  0.201018E+03  0.147709E+01  0.276664E+24  0.128649E-01  0.308654E+03  0.297294E+03  0.293678E+03  0.117889E+04  0.561245E+00  0.420357E-05  0.115102E+09  0.159223E+32  0.000000E+00  0.000000E+00  0.000000E+00  0.000000E+00  0.100000E+01  0.308654E+03  0.297294E+03  0.293678E+03
 -0.150000E-03  0.500000E-04  0.195400E+03  0.184806E+01  0.279302E+24  0.129875E-01  0.310403E+03  0.300287E+03  0.293414E+03  0.119688E+04  0.544029E+00  0.416976E-05  0.115189E+09  0.160863E+32  0.000000E+00  0.000000E+00  0.000000E+00  0.000000E+00  0.100000E+01  0.310403E+03  0.300287E+03  0.293414E+03
 -0.499999E-04  0.500000E-04  0.197238E+03  0.253709E+00  0.269621E+24  0.125374E-01  0.310143E+03  0.298162E+03  0.294146E+03  0.115442E+04  0.549352E+00  0.431857E-05  0.111119E+09  0.149801E+32  0.000000E+00  0.000000E+00  0.000000E+00  0.000000E+00  0.100000E+01  0.310143E+03  0.298162E+03  0.294146E+03
  0.499999E-04  0.500000E-04  0.193357E+03  0.325326E+01  0.272446E+24  0.126688E-01  0.309246E+03  0.299007E+03  0.293946E+03  0.116314E+04  0.539398E+00  0.427069E-05  0.112008E+09  0.152581E+32  0.000000E+00  0.000000E+00  0.000000E+00  0.000000E+00  0.100000E+01  0.309246E+03  0.299007E+03  0.293946E+03
  0.150000E-03  0.500000E-04  0.188512E+03  0.117177E+01  0.270492E+24  0.125779E-01  0.310523E+03  0.300144E+03  0.294218E+03  0.115957E+04  0.524735E+00  0.430597E-05  0.111946E+09  0.151403E+32  0.000000E+00  0.000000E+00  0.000000E+00  0.000000E+00  0.100000E+01  0.310523E+03  0.300144E+03  0.294218E+03
  0.250000E-03  0.500000E-04  0.186889E+03 -0.101048E+00  0.269404E+24  0.125273E-01  0.311804E+03  0.301068E+03  0.294731E+03  0.115967E+04  0.519139E+00  0.432782E-05  0.111990E+09  0.150853E+32  0.000000E+00  0.000000E+00  0.000000E+00  0.000000E+00  0.100000E+01  0.311804E+03  0.301068E+03  0.294731E+03
  0.350000E-03  0.500000E-04  0.181702E+03  0.189898E+01  0.267058E+24  0.124182E-01  0.311521E+03  0.301095E+03  0.294325E+03  0.114853E+04  0.504988E+00  0.436484E-05  0.110677E+09  0.147787E+32  0.000000E+00  0.000000E+00  0.000000E+00  0.000000E+00  0.100000E+01  0.311521E+03  0.301095E+03  0.294325E+03
  0.450000E-03  0.500000E-04  0.182112E+03  0.241794E+01  0.264760E+24  0.123113E-01  0.311381E+03  0.301315E+03  0.294361E+03  0.113813E+04  0.506258E+00  0.440224E-05  0.110534E+09  0.146324E+32  0.000000E+00  0.000000E+00  0.000000E+00  0.000000E+00  0.100000E+01  0.311381E+03  0.301315E+03  0.294361E+03
  0.550000E-03  0.500000E-04  0.179291E+03  0.107651E+01  0.262870E+24  0.122235E-01  0.311879E+03  0.303005E+03  0.294832E+03  0.113182E+04  0.497983E+00  0.443566E-05  0.109367E+09  0.143747E+32  0.000000E+00  0.000000E+00  0.000000E+00  0.000000E+00  0.100000E+01  0.311879E+03  0.303005E+03  0.294832E+03
  0.650000E-03  0.500000E-04  0.177964E+03  0.757645E+00  0.264284E+24  0.122892E-01  0.313441E+03  0.302209E+03  0.294402E+03  0.114360E+04  0.493060E+00  0.441744E-05  0.109373E+09  0.144527E+32  0.000000E+00  0.000000E+00  0.000000E+00  0.000000E+00  0.100000E+01  0.313441E+03  0.302209E+03  0.294402E+03
  0.750000E-03  0.500000E-04  0.176654E+03  0.130613E+01  0.264565E+24  0.123023E-01  0.311616E+03  0.301534E+03  0.295036E+03  0.113815E+04  0.490871E+00  0.440631E-05  0.109950E+09  0.145444E+32  0.000000E+00  0.000000E+00  0.000000E+00  0.000000E+00  0.100000E+01  0.311616E+03  0.301534E+03  0.295036E+03
  0.850000E-03  0.500000E-04  0.174115E+03  0.325546E+00  0.265336E+24  0.123381E-01  0.309549E+03  0.299069E+03  0.294516E+03  0.113390E+04  0.485416E+00  0.438621E-05  0.109640E+09  0.145458E+32  0.000000E+00  0.000000E+00  0.000000E+00  0.000000E+00  0.100000E+01  0.309549E+03  0.299069E+03  0.294516E+03
  0.950000E-03  0.500000E-04  0.171538E+03  0.227861E+01  0.263108E+24  0.122345E-01  0.309330E+03  0.298478E+03  0.294039E+03  0.112358E+04  0.478441E+00  0.442257E-05  0.109141E+09  0.143579E+32  0.000000E+00  0.000000E+00  0.000000E+00  0.000000E+00  0.100000E+01  0.309330E+03  0.298478E+03  0.294039E+03
  0.105000E-02  0.500000E-04  0.174021E+03 -0.262575E+01  0.256493E+24  0.119269E-01  0.313502E+03  0.300610E+03  0.294640E+03  0.111011E+04  0.482139E+00  0.455185E-05  0.106311E+09  0.136340E+32  0.000000E+00  0.000000E+00  0.000000E+00  0.000000E+00  0.100000E+01  0.313502E+03  0.300610E+03  0.294640E+03
  0.115000E-02  0.500000E-04  0.169542E+03  0.116350E+01  0.262027E+24  0.121843E-01  0.311401E+03  0.301119E+03  0.294411E+03  0.112646E+04  0.471269E+00  0.444822E-05  0.108746E+09  0.142471E+32  0.000000E+00  0.000000E+00  0.000000E+00  0.000000E+00  0.100000E+01  0.311401E+03  0.301119E+03  0.294411E+03
  0.125000E-02  0.500000E-04  0.169084E+03 -0.429836E+00  0.261498E+24  0.121597E-01  0.308191E+03  0.300090E+03  0.294743E+03  0.111259E+04  0.472426E+00  0.444570E-05  0.108023E+09  0.141239E+32  0.000000E+00  0.000000E+00  0.000000E+00  0.000000E+00  0.100000E+01  0.308191E+03  0.300090E+03  0.294743E+03
  0.135000E-02  0.500000E-04  0.163949E+03  0.261000E+01  0.261111E+24  0.121417E-01  0.309065E+03  0.299171E+03  0.294616E+03  0.111410E+04  0.457488E+00  0.445544E-05  0.108099E+09  0.141129E+32  0.000000E+00  0.000000E+00  0.000000E+00  0.000000E+00  0.100000E+01  0.309065E+03  0.299171E+03  0.294616E+03
  0.145000E-02  0.500000E-04  0.161467E+03  0.151420E+00  0.259661E+24  0.120742E-01  0.307007E+03  0.299863E+03  0.294554E+03  0.110053E+04  0.452012E+00  0.447284E-05  0.106991E+09  0.138907E+32  0.000000E+00  0.000000E+00  0.000000E+00  0.000000E+00  0.100000E+01  0.307007E+03  0.299863E+03  0.294554E+03
  0.155000E-02  0.500000E-04  0.162141E+03  0.259923E+01  0.255511E+24  0.118813E-01  0.308864E+03  0.301041E+03  0.295118E+03  0.108950E+04  0.452590E+00  0.455234E-05  0.105726E+09  0.135072E+32  0.000000E+00  0.000000E+00  0.000000E+00  0.000000E+00  0.100000E+01  0.308864E+03  0.301041E+03  0.295118E+03
  0.165000E-02  0.500000E-04  0.159715E+03 -0.103124E+01  0.257618E+24  0.119793E-01  0.309063E+03  0.303588E+03  0.295390E+03  0.109919E+04  0.445628E+00  0.451583E-05  0.106469E+09  0.137141E+32  0.000000E+00  0.000000E+00  0.000000E+00  0.000000E+00  0.100000E+01  0.309063E+03  0.303588E+03  0.295390E+03
  0.175000E-02  0.500000E-04  0.157833E+03  0.985662E+00  0.260416E+24  0.121093E-01  0.305153E+03  0.300387E+03  0.294822E+03  0.109707E+04  0.443189E+00  0.445312E-05  0.107462E+09  0.139924E+32  0.000000E+00  0.000000E+00  0.000000E+00  0.000000E+00  0.100000E+01  0.305153E+03  0.300387E+03  0.294822E+03
  0.185000E-02  0.500000E-04  0.157372E+03  0.920970E+00  0.260708E+24  0.121229E-01  0.304510E+03  0.296696E+03  0.295021E+03  0.109598E+04  0.442359E+00  0.444580E-05  0.107284E+09  0.139849E+32  0.000000E+00  0.000000E+00  0.000000E+00  0.000000E+00  0.100000E+01  0.304510E+03  0.296696E+03  0.295021E+03
  0.195000E-02  0.500000E-04  0.151869E+03 -0.186042E+00  0.259680E+24  0.120751E-01  0.305946E+03  0.297593E+03  0.295418E+03  0.109681E+04  0.425879E+00  0.446864E-05  0.107389E+09  0.139434E+32  0.000000E+00  0.000000E+00  0.000000E+00  0.000000E+00  0.100000E+01  0.305946E+03  0.297593E+03  0.295418E+03
  0.205000E-02  0.500000E-04  0.152956E+03  0.246315E+01  0.253257E+24  0.117765E-01  0.308088E+03  0.301063E+03  0.294966E+03  0.107717E+04  0.427489E+00  0.458997E-05  0.104864E+09  0.132788E+32  0.000000E+00  0.000000E+00  0.000000E+00  0.000000E+00  0.100000E+01  0.308088E+03  0.301063E+03  0.294966E+03
  0.215000E-02  0.500000E-04  0.151437E+03 -0.751042E+00  0.255628E+24  0.118867E-01  0.308599E+03  0.303746E+03  0.294664E+03  0.108906E+04  0.422846E+00  0.454929E-05  0.105870E+09  0.135316E+32  0.000000E+00  0.000000E+00  0.000000E+00  0.000000E+00  0.100000E+01  0.308599E+03  0.303746E+03  0.294665E+03
  0.225000E-02  0.500000E-04  0.149102E+03  0.271640E+01  0.257099E+24  0.119551E-01  0.307825E+03  0.302602E+03  0.294878E+03  0.109258E+04  0.416911E+00  0.452041E-05  0.106676E+09  0.137132E+32  0.000000E+00  0.000000E+00  0.000000E+00  0.000000E+00  0.100000E+01  0.307825E+03  0.302602E+03  0.294878E+03
  0.235000E-02  0.500000E-04  0.144906E+03  0.438477E+00  0.257356E+24  0.119670E-01  0.305194E+03  0.300529E+03  0.295329E+03  0.108432E+04  0.406858E+00  0.450622E-05  0.106640E+09  0.137222E+32  0.000000E+00  0.000000E+00  0.000000E+00  0.000000E+00  0.100000E+01  0.305194E+03  0.300529E+03  0.295329E+03
  0.245000E-02  0.500000E-04  0.147028E+03 -0.179441E+01  0.253093E+24  0.117688E-01  0.309805E+03  0.302266E+03  0.294749E+03  0.108247E+04  0.409759E+00  0.459933E-05  0.105077E+09  0.132972E+32  0.000000E+00  0.000000E+00  0.000000E+00  0.000000E+00  0.100000E+01  0.309805E+03  0.302266E+03  0.294749E+03
  0.255000E-02  0.500000E-04  0.145240E+03  0.230590E+01  0.249594E+24  0.116061E-01  0.307130E+03  0.300754E+03  0.295203E+03  0.105829E+04  0.406557E+00  0.465371E-05  0.103417E+09  0.129062E+32  0.000000E+00  0.000000E+00  0.000000E+00  0.000000E+00  0.100000E+01  0.307130E+03  0.300754E+03  0.295203E+03
  0.265000E-02  0.500000E-04  0.141501E+03  0.416759E+00  0.249552E+24  0.116042E-01  0.305753E+03  0.300414E+03  0.295306E+03  0.105337E+04  0.396934E+00  0.464926E-05  0.102933E+09  0.128436E+32  0.000000E+00  0.000000E+00  0.000000E+00  0.000000E+00  0.100000E+01  0.305753E+03  0.300414E+03  0.295306E+03
  0.275000E-02  0.500000E-04  0.143241E+03 -0.190215E+01  0.252564E+24  0.117442E-01  0.304412E+03  0.301090E+03  0.294478E+03  0.106141E+04  0.402732E+00  0.458878E-05  0.103606E+09  0.130835E+32  0.000000E+00  0.000000E+00  0.000000E+00  0.000000E+00  0.100000E+01  0.304412E+03  0.301090E+03  0.294478E+03
  0.285000E-02  0.500000E-04  0.142704E+03  0.286573E+01  0.252129E+24  0.117240E-01  0.306091E+03  0.297948E+03  0.295573E+03  0.106542E+04  0.400166E+00  0.460302E-05  0.104326E+09  0.131518E+32  0.000000E+00  0.000000E+00  0.000000E+00  0.000000E+00  0.100000E+01  0.306091E+03  0.297948E+03  0.295573E+03
  0.295000E-02  0.500000E-04  0.144350E+03 -0.751253E+00  0.247517E+24  0.115095E-01  0.307096E+03  0.302175E+03  0.295258E+03  0.104937E+04  0.404042E+00  0.469264E-05  0.101721E+09  0.125889E+32  0.000000E+00  0.000000E+00  0.000000E+00  0.000000E+00  0.100000E+01  0.307096E+03  0.302175E+03  0.295258E+03
  0.305000E-02  0.500000E-04  0.140550E+03 -0.609233E+00  0.250143E+24  0.116316E-01  0.307188E+03  0.300145E+03  0.294736E+03  0.106082E+04  0.393345E+00  0.464372E-05  0.103733E+09  0.129740E+32  0.000000E+00  0.000000E+00  0.000000E+00  0.000000E+00  0.100000E+01  0.307188E+03  0.300145E+03  0.294736E+03
  0.315000E-02  0.500000E-04  0.141041E+03  0.225415E+01  0.246828E+24  0.114775E-01  0.308087E+03  0.303544E+03  0.295330E+03  0.104983E+04  0.394190E+00  0.470952E-05  0.102329E+09  0.126288E+32  0.000000E+00  0.000000E+00  0.000000E+00  0.000000E+00  0.100000E+01  0.308087E+03  0.303544E+03  0.295330E+03
  0.325000E-02  0.500000E-04  0.140703E+03 -0.145990E+01  0.244895E+24  0.113876E-01  0.312214E+03  0.301690E+03  0.295584E+03  0.105556E+04  0.390608E+00  0.476251E-05  0.101587E+09  0.124391E+32  0.000000E+00  0.000000E+00  0.000000E+00  0.000000E+00  0.100000E+01  0.312214E+03  0.301690E+03  0.295584E+03
  0.335000E-02  0.500000E-04  0.135010E+03 -0.220843E+00  0.254184E+24  0.118196E-01  0.306905E+03  0.300504E+03  0.295447E+03  0.107697E+04  0.378013E+00  0.456883E-05  0.105391E+09  0.133944E+32  0.000000E+00  0.000000E+00  0.000000E+00  0.000000E+00  0.100000E+01  0.306905E+03  0.300504E+03  0.295447E+03
  0.345000E-02  0.500000E-04  0.134707E+03  0.133218E+01  0.246260E+24  0.114511E-01  0.310130E+03  0.304993E+03  0.295767E+03  0.105435E+04  0.375214E+00  0.472819E-05  0.102325E+09  0.125992E+32  0.000000E+00  0.000000E+00  0.000000E+00  0.000000E+00  0.100000E+01  0.310130E+03  0.304993E+03  0.295767E+03
  0.355000E-02  0.500000E-04  0.132849E+03  0.225711E+01  0.245654E+24  0.114229E-01  0.308478E+03  0.303666E+03  0.295810E+03  0.104616E+04  0.371064E+00  0.473353E-05  0.101389E+09  0.124534E+32  0.000000E+00  0.000000E+00  0.000000E+00  0.000000E+00  0.100000E+01  0.308478E+03  0.303666E+03  0.295810E+03
  0.365000E-02  0.500000E-04  0.129962E+03  0.428781E+00  0.246854E+24  0.114787E-01  0.308592E+03  0.304493E+03  0.295799E+03  0.105166E+04  0.362883E+00  0.471095E-05  0.101960E+09  0.125846E+32  0.000000E+00  0.000000E+00  0.000000E+00  0.000000E+00  0.100000E+01  0.308592E+03  0.304493E+03  0.295799E+03
  0.375000E-02  0.500000E-04  0.129875E+03 -0.912947E+00  0.246986E+24  0.114849E-01  0.305665E+03  0.299416E+03  0.296356E+03  0.104224E+04  0.364379E+00  0.469723E-05  0.101978E+09  0.125936E+32  0.000000E+00  0.000000E+00  0.000000E+00  0.000000E+00  0.100000E+01  0.305665E+03  0.299416E+03  0.296356E+03
  0.385000E-02  0.500000E-04  0.129355E+03 -0.152929E+01  0.247885E+24  0.115267E-01  0.304920E+03  0.298579E+03  0.295938E+03  0.104348E+04  0.363382E+00  0.467734E-05  0.102630E+09  0.127203E+32  0.000000E+00  0.000000E+00  0.000000E+00  0.000000E+00  0.100000E+01  0.304920E+03  0.298579E+03  0.295938E+03
  0.395000E-02  0.500000E-04  0.127342E+03  0.336839E+00  0.251588E+24  0.116989E-01  0.307397E+03  0.299762E+03  0.296025E+03  0.106768E+04  0.356258E+00  0.461782E-05  0.104387E+09  0.131313E+32  0.000000E+00  0.000000E+00  0.000000E+00  0.000000E+00  0.100000E+01  0.307397E+03  0.299762E+03  0.296025E+03
  0.405000E-02  0.500000E-04  0.125376E+03  0.324028E+01  0.249285E+24  0.115918E-01  0.305802E+03  0.301522E+03  0.295857E+03  0.105241E+04  0.351786E+00  0.465443E-05  0.103355E+09  0.128825E+32  0.000000E+00  0.000000E+00  0.000000E+00  0.000000E+00  0.100000E+01  0.305802E+03  0.301522E+03  0.295857E+03
  0.415000E-02  0.500000E-04  0.123293E+03  0.316602E+00  0.250740E+24  0.116594E-01  0.304914E+03  0.300939E+03  0.295772E+03  0.105548E+04  0.346332E+00  0.462406E-05  0.102858E+09  0.128953E+32  0.000000E+00  0.000000E+00  0.000000E+00  0.000000E+00  0.100000E+01  0.304914E+03  0.300939E+03  0.295772E+03
  0.425000E-02  0.500000E-04  0.121923E+03  0.640108E+00  0.250703E+24  0.116577E-01  0.304740E+03  0.299685E+03  0.295918E+03  0.105472E+04  0.342586E+00  0.462408E-05  0.103842E+09  0.130168E+32  0.000000E+00  0.000000E+00  0.000000E+00  0.000000E+00  0.100000E+01  0.304740E+03  0.299685E+03  0.295918E+03
  0.435000E-02  0.500000E-04  0.119943E+03  0.141973E+01  0.251325E+24  0.116866E-01  0.307232E+03  0.302697E+03  0.295874E+03  0.106598E+04  0.335671E+00  0.462204E-05  0.104085E+09  0.130796E+32  0.000000E+00  0.000000E+00  0.000000E+00  0.000000E+00  0.100000E+01  0.307232E+03  0.302697E+03  0.295874E+03
  0.445000E-02  0.500000E-04  0.116006E+03  0.241288E+01  0.248221E+24  0.115423E-01  0.307593E+03  0.302872E+03  0.296221E+03  0.105406E+04  0.324508E+00  0.468121E-05  0.102777E+09  0.127558E+32  0.000000E+00  0.000000E+00  0.000000E+00  0.000000E+00  0.100000E+01  0.307593E+03  0.302872E+03  0.296221E+03
  0.455000E-02  0.500000E-04  0.114319E+03 -0.208457E+01  0.249548E+24  0.116040E-01  0.304529E+03  0.301085E+03  0.296023E+03  0.104914E+04  0.321379E+00  0.464468E-05  0.102945E+09  0.128449E+32  0.000000E+00  0.000000E+00  0.000000E+00  0.000000E+00  0.100000E+01  0.304529E+03  0.301085E+03  0.296023E+03
  0.465000E-02  0.500000E-04  0.110235E+03  0.132883E+01  0.254297E+24  0.118248E-01  0.302853E+03  0.299315E+03  0.296214E+03  0.106322E+04  0.310725E+00  0.455165E-05  0.104466E+09  0.132827E+32  0.000000E+00  0.000000E+00  0.000000E+00  0.000000E+00  0.100000E+01  0.302853E+03  0.299315E+03  0.296214E+03
  0.475000E-02  0.500000E-04  0.105317E+03  0.152301E+00  0.256168E+24  0.119118E-01  0.303846E+03  0.300894E+03  0.295789E+03  0.107455E+04  0.296355E+00  0.452211E-05  0.106176E+09  0.135995E+32  0.000000E+00  0.000000E+00  0.000000E+00  0.000000E+00  0.100000E+01  0.303846E+03  0.300894E+03  0.295789E+03
  0.485000E-02  0.500000E-04  0.102697E+03  0.418486E+01  0.256242E+24  0.119153E-01  0.306995E+03  0.304402E+03  0.295784E+03  0.108600E+04  0.287736E+00  0.453247E-05  0.106597E+09  0.136573E+32  0.000000E+00  0.000000E+00  0.000000E+00  0.000000E+00  0.100000E+01  0.306995E+03  0.304402E+03  0.295784E+03
  0.495000E-02  0.500000E-04  0.984104E+02 -0.911552E-01  0.257006E+24  0.119508E-01  0.306699E+03  0.302477E+03  0.296378E+03  0.108819E+04  0.275630E+00  0.451791E-05  0.107311E+09  0.137898E+32  0.000000E+00  0.000000E+00  0.000000E+00  0.000000E+00  0.100000E+01  0.306698E+03  0.302477E+03  0.296378E+03
  0.505000E-02  0.500000E-04  0.941739E+02  0.865957E+00  0.262556E+24  0.122089E-01  0.306176E+03  0.302035E+03  0.295977E+03  0.110979E+04  0.264000E+00  0.442053E-05  0.109141E+09  0.143278E+32  0.000000E+00  0.000000E+00  0.000000E+00  0.000000E+00  0.100000E+01  0.306176E+03  0.302035E+03  0.295977E+03
  0.515000E-02  0.500000E-04  0.887286E+02  0.128109E+01  0.263541E+24  0.122546E-01  0.309100E+03  0.304542E+03  0.297203E+03  0.112460E+04  0.247571E+00  0.441448E-05  0.109714E+09  0.144570E+32  0.000000E+00  0.000000E+00  0.000000E+00  0.000000E+00  0.100000E+01  0.309100E+03  0.304542E+03  0.297203E+03
  0.525000E-02  0.500000E-04  0.839251E+02  0.226159E+01  0.270465E+24  0.125766E-01  0.309281E+03  0.305223E+03  0.296754E+03  0.115482E+04  0.234161E+00  0.430210E-05  0.112926E+09  0.152713E+32  0.000000E+00  0.000000E+00  0.000000E+00  0.000000E+00  0.100000E+01  0.309281E+03  0.305223E+03  0.296754E+03
  0.535000E-02  0.500000E-04  0.757759E+02  0.266264E+01  0.275492E+24  0.128104E-01  0.305959E+03  0.304114E+03  0.296788E+03  0.116364E+04  0.212622E+00  0.421221E-05  0.113850E+09  0.156823E+32  0.000000E+00  0.000000E+00  0.000000E+00  0.000000E+00  0.100000E+01  0.305959E+03  0.304114E+03  0.296788E+03
  0.545000E-02  0.500000E-04  0.675415E+02  0.109673E+01  0.281956E+24  0.131110E-01  0.307735E+03  0.304849E+03  0.296327E+03  0.119786E+04  0.188878E+00  0.412160E-05  0.117063E+09  0.165033E+32  0.000000E+00  0.000000E+00  0.000000E+00  0.000000E+00  0.100000E+01  0.307735E+03  0.304849E+03  0.296327E+03