TITLE=" Box                                                                     /                                                                         "
VARIABLES="X",        "Y",      "Vx   ",      "Vy   ",      "Nden ",      "Rho  ",      "Ttrn ",      "Trot ",      "Tvib ",      "Press",      "Ma   ",      "Lambd",      "Relac",      "Coll ",      "frac1",      "Ttrn1",      "Trot1",      "Tvib1",      "frac2",      "Ttrn2",      "Trot2",      "Tvib2"
ZONE T="DSMC,BG", I=  200, J=   50, F=POINT
 -0.395000E-02  0.500000E-04  0.802247E+03  0.249511E+02  0.128844E+25  0.599127E-01  0.994186E+02  0.836849E+02  0.233043E+03  0.176841E+04  0.394841E+01  0.679993E-06  0.384269E+09  0.247555E+33  0.000000E+00  0.000000E+00  0.000000E+00  0.000000E+00  0.100000E+01  0.994186E+02  0.836849E+02  0.233043E+03
 -0.385000E-02  0.500000E-04  0.739596E+03  0.685908E+02  0.139825E+25  0.650188E-01  0.144881E+03  0.115830E+03  0.246058E+03  0.279671E+04  0.302682E+01  0.688447E-06  0.477656E+09  0.333942E+33  0.000000E+00  0.000000E+00  0.000000E+00  0.000000E+00  0.100000E+01  0.144881E+03  0.115830E+03  0.246058E+03
 -0.375000E-02  0.500000E-04  0.712763E+03  0.890708E+02  0.138918E+25  0.645970E-01  0.159353E+03  0.129821E+03  0.250107E+03  0.305611E+04  0.279105E+01  0.709633E-06  0.532878E+09  0.370132E+33  0.000000E+00  0.000000E+00  0.000000E+00  0.000000E+00  0.100000E+01  0.159353E+03  0.129821E+03  0.250107E+03
 -0.365000E-02  0.500000E-04  0.675362E+03  0.729647E+02  0.111966E+25  0.520641E-01  0.183518E+03  0.147054E+03  0.257065E+03  0.283670E+04  0.245955E+01  0.912089E-06  0.462180E+09  0.258742E+33  0.000000E+00  0.000000E+00  0.000000E+00  0.000000E+00  0.100000E+01  0.183518E+03  0.147054E+03  0.257065E+03
 -0.355000E-02  0.500000E-04  0.626551E+03  0.523221E+02  0.873450E+24  0.406154E-01  0.211707E+03  0.169199E+03  0.264610E+03  0.255284E+04  0.211951E+01  0.121171E-05  0.360090E+09  0.157260E+33  0.000000E+00  0.000000E+00  0.000000E+00  0.000000E+00  0.100000E+01  0.211707E+03  0.169199E+03  0.264610E+03
 -0.345000E-02  0.500000E-04  0.580744E+03  0.404149E+02  0.718369E+24  0.334042E-01  0.235779E+03  0.190478E+03  0.270491E+03  0.233831E+04  0.185960E+01  0.151350E-05  0.295608E+09  0.106178E+33  0.000000E+00  0.000000E+00  0.000000E+00  0.000000E+00  0.100000E+01  0.235779E+03  0.190478E+03  0.270491E+03
 -0.335000E-02  0.500000E-04  0.541180E+03  0.302822E+02  0.613944E+24  0.285484E-01  0.251412E+03  0.205674E+03  0.274596E+03  0.213091E+04  0.167674E+01  0.179958E-05  0.251593E+09  0.772319E+32  0.000000E+00  0.000000E+00  0.000000E+00  0.000000E+00  0.100000E+01  0.251412E+03  0.205674E+03  0.274596E+03
 -0.325000E-02  0.500000E-04  0.506919E+03  0.218709E+02  0.542334E+24  0.252185E-01  0.261998E+03  0.220909E+03  0.277622E+03  0.196161E+04  0.153756E+01  0.205831E-05  0.220925E+09  0.599076E+32  0.000000E+00  0.000000E+00  0.000000E+00  0.000000E+00  0.100000E+01  0.261998E+03  0.220909E+03  0.277622E+03
 -0.315000E-02  0.500000E-04  0.472182E+03  0.172462E+02  0.501975E+24  0.233418E-01  0.273236E+03  0.232860E+03  0.280525E+03  0.189351E+04  0.140207E+01  0.224727E-05  0.203887E+09  0.511730E+32  0.000000E+00  0.000000E+00  0.000000E+00  0.000000E+00  0.100000E+01  0.273236E+03  0.232860E+03  0.280525E+03
 -0.305000E-02  0.500000E-04  0.439712E+03  0.180161E+02  0.472288E+24  0.219614E-01  0.280705E+03  0.242873E+03  0.282334E+03  0.183024E+04  0.128839E+01  0.240468E-05  0.192197E+09  0.453862E+32  0.000000E+00  0.000000E+00  0.000000E+00  0.000000E+00  0.100000E+01  0.280705E+03  0.242873E+03  0.282334E+03
 -0.295000E-02  0.500000E-04  0.410447E+03  0.156544E+02  0.443395E+24  0.206179E-01  0.289332E+03  0.253310E+03  0.284302E+03  0.177107E+04  0.118444E+01  0.258084E-05  0.181072E+09  0.401432E+32  0.000000E+00  0.000000E+00  0.000000E+00  0.000000E+00  0.100000E+01  0.289332E+03  0.253310E+03  0.284302E+03
 -0.285000E-02  0.500000E-04  0.386432E+03  0.102064E+02  0.417608E+24  0.194188E-01  0.293338E+03  0.260139E+03  0.285945E+03  0.169116E+04  0.110708E+01  0.274964E-05  0.171419E+09  0.357930E+32  0.000000E+00  0.000000E+00  0.000000E+00  0.000000E+00  0.100000E+01  0.293338E+03  0.260139E+03  0.285945E+03
 -0.275000E-02  0.500000E-04  0.368718E+03  0.810419E+01  0.400698E+24  0.186324E-01  0.293959E+03  0.261975E+03  0.286321E+03  0.162612E+04  0.105510E+01  0.286720E-05  0.163187E+09  0.326943E+32  0.000000E+00  0.000000E+00  0.000000E+00  0.000000E+00  0.100000E+01  0.293959E+03  0.261975E+03  0.286321E+03
 -0.265000E-02  0.500000E-04  0.356458E+03  0.553278E+01  0.388248E+24  0.180536E-01  0.295755E+03  0.267878E+03  0.287465E+03  0.158523E+04  0.101680E+01  0.296365E-05  0.157950E+09  0.306619E+32  0.000000E+00  0.000000E+00  0.000000E+00  0.000000E+00  0.100000E+01  0.295755E+03  0.267878E+03  0.287465E+03
 -0.255000E-02  0.500000E-04  0.338972E+03  0.901218E+01  0.379559E+24  0.176495E-01  0.299312E+03  0.271029E+03  0.288090E+03  0.156838E+04  0.961380E+00  0.304056E-05  0.154765E+09  0.293713E+32  0.000000E+00  0.000000E+00  0.000000E+00  0.000000E+00  0.100000E+01  0.299312E+03  0.271029E+03  0.288090E+03
 -0.245000E-02  0.500000E-04  0.331561E+03  0.642549E+01  0.361799E+24  0.168237E-01  0.299043E+03  0.269377E+03  0.288368E+03  0.149365E+04  0.940630E+00  0.318910E-05  0.147657E+09  0.267111E+32  0.000000E+00  0.000000E+00  0.000000E+00  0.000000E+00  0.100000E+01  0.299043E+03  0.269377E+03  0.288368E+03
 -0.235000E-02  0.500000E-04  0.319101E+03  0.479635E+01  0.354572E+24  0.164876E-01  0.298837E+03  0.272928E+03  0.288782E+03  0.146281E+04  0.905525E+00  0.325354E-05  0.145167E+09  0.257360E+32  0.000000E+00  0.000000E+00  0.000000E+00  0.000000E+00  0.100000E+01  0.298837E+03  0.272928E+03  0.288782E+03
 -0.225000E-02  0.500000E-04  0.312041E+03  0.270812E+01  0.343857E+24  0.159893E-01  0.301839E+03  0.275590E+03  0.289221E+03  0.143285E+04  0.881010E+00  0.336333E-05  0.140229E+09  0.241094E+32  0.000000E+00  0.000000E+00  0.000000E+00  0.000000E+00  0.100000E+01  0.301839E+03  0.275590E+03  0.289221E+03
 -0.215000E-02  0.500000E-04  0.295360E+03  0.680845E+01  0.342571E+24  0.159295E-01  0.303997E+03  0.284019E+03  0.289602E+03  0.143770E+04  0.831137E+00  0.338197E-05  0.140132E+09  0.240026E+32  0.000000E+00  0.000000E+00  0.000000E+00  0.000000E+00  0.100000E+01  0.303997E+03  0.284019E+03  0.289602E+03
 -0.205000E-02  0.500000E-04  0.289927E+03  0.513256E+01  0.329421E+24  0.153181E-01  0.305371E+03  0.283360E+03  0.290239E+03  0.138876E+04  0.813925E+00  0.352093E-05  0.134837E+09  0.222090E+32  0.000000E+00  0.000000E+00  0.000000E+00  0.000000E+00  0.100000E+01  0.305371E+03  0.283360E+03  0.290239E+03
 -0.195000E-02  0.500000E-04  0.287528E+03  0.344867E+01  0.321847E+24  0.149659E-01  0.305434E+03  0.284100E+03  0.290920E+03  0.135711E+04  0.807037E+00  0.360398E-05  0.132050E+09  0.212499E+32  0.000000E+00  0.000000E+00  0.000000E+00  0.000000E+00  0.100000E+01  0.305434E+03  0.284100E+03  0.290920E+03
 -0.185000E-02  0.500000E-04  0.274220E+03  0.256605E+01  0.326300E+24  0.151730E-01  0.306767E+03  0.287505E+03  0.291062E+03  0.138190E+04  0.767987E+00  0.355867E-05  0.133575E+09  0.217928E+32  0.000000E+00  0.000000E+00  0.000000E+00  0.000000E+00  0.100000E+01  0.306767E+03  0.287505E+03  0.291062E+03
 -0.175000E-02  0.500000E-04  0.265341E+03  0.357641E+01  0.319137E+24  0.148399E-01  0.305913E+03  0.285429E+03  0.291219E+03  0.134780E+04  0.744192E+00  0.363601E-05  0.130784E+09  0.208690E+32  0.000000E+00  0.000000E+00  0.000000E+00  0.000000E+00  0.100000E+01  0.305913E+03  0.285429E+03  0.291219E+03
 -0.165000E-02  0.500000E-04  0.260371E+03  0.322214E+01  0.311956E+24  0.145059E-01  0.305578E+03  0.287097E+03  0.291432E+03  0.131603E+04  0.730643E+00  0.371869E-05  0.127862E+09  0.199437E+32  0.000000E+00  0.000000E+00  0.000000E+00  0.000000E+00  0.100000E+01  0.305578E+03  0.287097E+03  0.291432E+03
 -0.155000E-02  0.500000E-04  0.252453E+03  0.214760E+01  0.308739E+24  0.143564E-01  0.307978E+03  0.291928E+03  0.291979E+03  0.131268E+04  0.705631E+00  0.376479E-05  0.126640E+09  0.195493E+32  0.000000E+00  0.000000E+00  0.000000E+00  0.000000E+00  0.100000E+01  0.307978E+03  0.291928E+03  0.291979E+03
 -0.145000E-02  0.500000E-04  0.250597E+03  0.320662E+01  0.301850E+24  0.140360E-01  0.309310E+03  0.294781E+03  0.291706E+03  0.128895E+04  0.698965E+00  0.385488E-05  0.125491E+09  0.189398E+32  0.000000E+00  0.000000E+00  0.000000E+00  0.000000E+00  0.100000E+01  0.309310E+03  0.294781E+03  0.291706E+03
 -0.135000E-02  0.500000E-04  0.250940E+03  0.240202E+01  0.297859E+24  0.138505E-01  0.308146E+03  0.290041E+03  0.292156E+03  0.126712E+04  0.701217E+00  0.390284E-05  0.122265E+09  0.182088E+32  0.000000E+00  0.000000E+00  0.000000E+00  0.000000E+00  0.100000E+01  0.308146E+03  0.290041E+03  0.292156E+03
 -0.125000E-02  0.500000E-04  0.240866E+03  0.223040E+01  0.302964E+24  0.140878E-01  0.306946E+03  0.291598E+03  0.292160E+03  0.128381E+04  0.674378E+00  0.383334E-05  0.124147E+09  0.188059E+32  0.000000E+00  0.000000E+00  0.000000E+00  0.000000E+00  0.100000E+01  0.306946E+03  0.291598E+03  0.292160E+03
 -0.115000E-02  0.500000E-04  0.236884E+03  0.183639E+01  0.295892E+24  0.137590E-01  0.308101E+03  0.290348E+03  0.291781E+03  0.125856E+04  0.661977E+00  0.392865E-05  0.122660E+09  0.181471E+32  0.000000E+00  0.000000E+00  0.000000E+00  0.000000E+00  0.100000E+01  0.308101E+03  0.290348E+03  0.291781E+03
 -0.105000E-02  0.500000E-04  0.233162E+03  0.330890E+01  0.288729E+24  0.134259E-01  0.309366E+03  0.294208E+03  0.292373E+03  0.123314E+04  0.650288E+00  0.403024E-05  0.119344E+09  0.172290E+32  0.000000E+00  0.000000E+00  0.000000E+00  0.000000E+00  0.100000E+01  0.309366E+03  0.294208E+03  0.292373E+03
 -0.950000E-03  0.500000E-04  0.235038E+03 -0.589207E+00  0.281414E+24  0.130857E-01  0.309952E+03  0.292398E+03  0.293483E+03  0.120417E+04  0.654836E+00  0.413696E-05  0.115173E+09  0.162056E+32  0.000000E+00  0.000000E+00  0.000000E+00  0.000000E+00  0.100000E+01  0.309952E+03  0.292398E+03  0.293483E+03
 -0.850000E-03  0.500000E-04  0.228736E+03  0.701071E+00  0.288173E+24  0.134000E-01  0.307995E+03  0.293069E+03  0.293015E+03  0.122531E+04  0.639300E+00  0.403353E-05  0.119163E+09  0.171698E+32  0.000000E+00  0.000000E+00  0.000000E+00  0.000000E+00  0.100000E+01  0.307995E+03  0.293069E+03  0.293015E+03
 -0.750000E-03  0.500000E-04  0.217116E+03  0.508113E+01  0.291528E+24  0.135560E-01  0.312228E+03  0.299993E+03  0.293162E+03  0.125661E+04  0.602858E+00  0.400074E-05  0.119816E+09  0.174649E+32  0.000000E+00  0.000000E+00  0.000000E+00  0.000000E+00  0.100000E+01  0.312228E+03  0.299993E+03  0.293162E+03
 -0.650000E-03  0.500000E-04  0.209343E+03  0.539721E+01  0.286602E+24  0.133270E-01  0.308679E+03  0.299974E+03  0.293469E+03  0.122134E+04  0.584641E+00  0.405789E-05  0.117899E+09  0.168951E+32  0.000000E+00  0.000000E+00  0.000000E+00  0.000000E+00  0.100000E+01  0.308679E+03  0.299974E+03  0.293469E+03
 -0.550000E-03  0.500000E-04  0.203642E+03  0.138170E+01  0.287497E+24  0.133686E-01  0.307087E+03  0.296551E+03  0.293050E+03  0.121883E+04  0.570015E+00  0.404004E-05  0.118317E+09  0.170079E+32  0.000000E+00  0.000000E+00  0.000000E+00  0.000000E+00  0.100000E+01  0.307087E+03  0.296551E+03  0.293050E+03
 -0.450000E-03  0.500000E-04  0.204230E+03  0.208688E+01  0.281036E+24  0.130682E-01  0.308163E+03  0.293921E+03  0.293500E+03  0.119561E+04  0.570679E+00  0.413653E-05  0.115697E+09  0.162575E+32  0.000000E+00  0.000000E+00  0.000000E+00  0.000000E+00  0.100000E+01  0.308163E+03  0.293921E+03  0.293500E+03
 -0.350000E-03  0.500000E-04  0.205886E+03 -0.287944E+00  0.275986E+24  0.128333E-01  0.308989E+03  0.295663E+03  0.293136E+03  0.117728E+04  0.574507E+00  0.421504E-05  0.113984E+09  0.157290E+32  0.000000E+00  0.000000E+00  0.000000E+00  0.000000E+00  0.100000E+01  0.308989E+03  0.295663E+03  0.293136E+03
 -0.250000E-03  0.500000E-04  0.203172E+03  0.185829E+01  0.279387E+24  0.129915E-01  0.308155E+03  0.293060E+03  0.293879E+03  0.118857E+04  0.567725E+00  0.416091E-05  0.115238E+09  0.160979E+32  0.000000E+00  0.000000E+00  0.000000E+00  0.000000E+00  0.100000E+01  0.308155E+03  0.293060E+03  0.293879E+03
 -0.150000E-03  0.500000E-04  0.201986E+03  0.175817E+00  0.274284E+24  0.127542E-01  0.310577E+03  0.299641E+03  0.294659E+03  0.117603E+04  0.562183E+00  0.424663E-05  0.112851E+09  0.154766E+32  0.000000E+00  0.000000E+00  0.000000E+00  0.000000E+00  0.100000E+01  0.310577E+03  0.299641E+03  0.294659E+03
 -0.499999E-04  0.500000E-04  0.195797E+03  0.295495E+01  0.271086E+24  0.126055E-01  0.311393E+03  0.299065E+03  0.293749E+03  0.116537E+04  0.544305E+00  0.429955E-05  0.112963E+09  0.153113E+32  0.000000E+00  0.000000E+00  0.000000E+00  0.000000E+00  0.100000E+01  0.311393E+03  0.299066E+03  0.293749E+03
  0.499999E-04  0.500000E-04  0.191405E+03  0.873822E+00  0.272596E+24  0.126757E-01  0.306008E+03  0.293521E+03  0.294079E+03  0.115160E+04  0.536700E+00  0.425712E-05  0.112134E+09  0.152837E+32  0.000000E+00  0.000000E+00  0.000000E+00  0.000000E+00  0.100000E+01  0.306008E+03  0.293521E+03  0.294079E+03
  0.150000E-03  0.500000E-04  0.186636E+03  0.416722E+00  0.272196E+24  0.126571E-01  0.304703E+03  0.292498E+03  0.293300E+03  0.114501E+04  0.524444E+00  0.425883E-05  0.112295E+09  0.152831E+32  0.000000E+00  0.000000E+00  0.000000E+00  0.000000E+00  0.100000E+01  0.304703E+03  0.292498E+03  0.293300E+03
  0.250000E-03  0.500000E-04  0.186581E+03  0.261576E+01  0.268934E+24  0.125054E-01  0.304827E+03  0.294505E+03  0.293319E+03  0.113174E+04  0.524233E+00  0.431092E-05  0.110472E+09  0.148549E+32  0.000000E+00  0.000000E+00  0.000000E+00  0.000000E+00  0.100000E+01  0.304827E+03  0.294505E+03  0.293319E+03
  0.350000E-03  0.500000E-04  0.181823E+03  0.307011E+01  0.267905E+24  0.124576E-01  0.308770E+03  0.299575E+03  0.294033E+03  0.114200E+04  0.507613E+00  0.434141E-05  0.110448E+09  0.147948E+32  0.000000E+00  0.000000E+00  0.000000E+00  0.000000E+00  0.100000E+01  0.308770E+03  0.299575E+03  0.294033E+03
  0.450000E-03  0.500000E-04  0.179470E+03  0.691272E+00  0.265559E+24  0.123485E-01  0.310015E+03  0.300353E+03  0.294121E+03  0.113656E+04  0.499969E+00  0.438418E-05  0.110368E+09  0.146546E+32  0.000000E+00  0.000000E+00  0.000000E+00  0.000000E+00  0.100000E+01  0.310015E+03  0.300353E+03  0.294121E+03
  0.550000E-03  0.500000E-04  0.180879E+03 -0.155272E+00  0.261643E+24  0.121664E-01  0.310132E+03  0.299649E+03  0.293741E+03  0.112022E+04  0.503797E+00  0.445021E-05  0.108012E+09  0.141303E+32  0.000000E+00  0.000000E+00  0.000000E+00  0.000000E+00  0.100000E+01  0.310132E+03  0.299649E+03  0.293741E+03
  0.650000E-03  0.500000E-04  0.176978E+03 -0.986656E-03  0.267597E+24  0.124433E-01  0.309112E+03  0.302313E+03  0.293820E+03  0.114195E+04  0.493743E+00  0.434761E-05  0.110892E+09  0.148372E+32  0.000000E+00  0.000000E+00  0.000000E+00  0.000000E+00  0.100000E+01  0.309112E+03  0.302313E+03  0.293820E+03
  0.750000E-03  0.500000E-04  0.176628E+03 -0.535079E+00  0.265512E+24  0.123463E-01  0.310414E+03  0.299377E+03  0.293950E+03  0.113782E+04  0.491735E+00  0.438636E-05  0.109967E+09  0.145988E+32  0.000000E+00  0.000000E+00  0.000000E+00  0.000000E+00  0.100000E+01  0.310414E+03  0.299377E+03  0.293950E+03
  0.850000E-03  0.500000E-04  0.171991E+03  0.307674E+01  0.267320E+24  0.124304E-01  0.306906E+03  0.300078E+03  0.293852E+03  0.113262E+04  0.481631E+00  0.434433E-05  0.110115E+09  0.147180E+32  0.000000E+00  0.000000E+00  0.000000E+00  0.000000E+00  0.100000E+01  0.306906E+03  0.300078E+03  0.293852E+03
  0.950000E-03  0.500000E-04  0.172357E+03  0.416552E+00  0.266286E+24  0.123823E-01  0.309532E+03  0.303696E+03  0.293544E+03  0.113790E+04  0.480527E+00  0.437050E-05  0.111159E+09  0.148000E+32  0.000000E+00  0.000000E+00  0.000000E+00  0.000000E+00  0.100000E+01  0.309532E+03  0.303696E+03  0.293544E+03
  0.105000E-02  0.500000E-04  0.170332E+03 -0.215057E+00  0.260917E+24  0.121326E-01  0.313090E+03  0.303628E+03  0.294381E+03  0.112777E+04  0.472176E+00  0.447319E-05  0.108755E+09  0.141881E+32  0.000000E+00  0.000000E+00  0.000000E+00  0.000000E+00  0.100000E+01  0.313090E+03  0.303628E+03  0.294381E+03
  0.115000E-02  0.500000E-04  0.167905E+03  0.241236E+01  0.263607E+24  0.122577E-01  0.311000E+03  0.307337E+03  0.294240E+03  0.113179E+04  0.467057E+00  0.442014E-05  0.109353E+09  0.144131E+32  0.000000E+00  0.000000E+00  0.000000E+00  0.000000E+00  0.100000E+01  0.311000E+03  0.307337E+03  0.294240E+03
  0.125000E-02  0.500000E-04  0.172855E+03 -0.245369E+00  0.254317E+24  0.118258E-01  0.313295E+03  0.306963E+03  0.294175E+03  0.109996E+04  0.479012E+00  0.459002E-05  0.106099E+09  0.134914E+32  0.000000E+00  0.000000E+00  0.000000E+00  0.000000E+00  0.100000E+01  0.313295E+03  0.306963E+03  0.294175E+03
  0.135000E-02  0.500000E-04  0.167083E+03  0.186834E+01  0.259038E+24  0.120452E-01  0.309637E+03  0.302600E+03  0.294074E+03  0.110730E+04  0.465772E+00  0.449318E-05  0.107294E+09  0.138966E+32  0.000000E+00  0.000000E+00  0.000000E+00  0.000000E+00  0.100000E+01  0.309637E+03  0.302600E+03  0.294074E+03
  0.145000E-02  0.500000E-04  0.156574E+03  0.359334E+01  0.264008E+24  0.122764E-01  0.309361E+03  0.301221E+03  0.294508E+03  0.112754E+04  0.436760E+00  0.440760E-05  0.109822E+09  0.144969E+32  0.000000E+00  0.000000E+00  0.000000E+00  0.000000E+00  0.100000E+01  0.309361E+03  0.301221E+03  0.294508E+03
  0.155000E-02  0.500000E-04  0.151661E+03  0.145560E+01  0.263178E+24  0.122378E-01  0.310535E+03  0.302731E+03  0.295055E+03  0.112826E+04  0.422162E+00  0.442569E-05  0.108807E+09  0.143179E+32  0.000000E+00  0.000000E+00  0.000000E+00  0.000000E+00  0.100000E+01  0.310535E+03  0.302731E+03  0.295055E+03
  0.165000E-02  0.500000E-04  0.150028E+03  0.484969E+01  0.261415E+24  0.121558E-01  0.310995E+03  0.304310E+03  0.295443E+03  0.112236E+04  0.417506E+00  0.445719E-05  0.108353E+09  0.141626E+32  0.000000E+00  0.000000E+00  0.000000E+00  0.000000E+00  0.100000E+01  0.310995E+03  0.304310E+03  0.295443E+03
  0.175000E-02  0.500000E-04  0.152748E+03 -0.609930E+00  0.250741E+24  0.116595E-01  0.309556E+03  0.298513E+03  0.295732E+03  0.107155E+04  0.425844E+00  0.464154E-05  0.103266E+09  0.129466E+32  0.000000E+00  0.000000E+00  0.000000E+00  0.000000E+00  0.100000E+01  0.309556E+03  0.298513E+03  0.295732E+03
  0.185000E-02  0.500000E-04  0.152442E+03 -0.128502E+01  0.253940E+24  0.118082E-01  0.308537E+03  0.302851E+03  0.295490E+03  0.108165E+04  0.425705E+00  0.457929E-05  0.105404E+09  0.133832E+32  0.000000E+00  0.000000E+00  0.000000E+00  0.000000E+00  0.100000E+01  0.308537E+03  0.302851E+03  0.295490E+03
  0.195000E-02  0.500000E-04  0.150928E+03 -0.930147E+00  0.259969E+24  0.120886E-01  0.306906E+03  0.300481E+03  0.294924E+03  0.110148E+04  0.422587E+00  0.446717E-05  0.107853E+09  0.140192E+32  0.000000E+00  0.000000E+00  0.000000E+00  0.000000E+00  0.100000E+01  0.306906E+03  0.300481E+03  0.294924E+03
  0.205000E-02  0.500000E-04  0.152861E+03 -0.918667E+00  0.256087E+24  0.119080E-01  0.308309E+03  0.299266E+03  0.295698E+03  0.108999E+04  0.427023E+00  0.454006E-05  0.105908E+09  0.135609E+32  0.000000E+00  0.000000E+00  0.000000E+00  0.000000E+00  0.100000E+01  0.308309E+03  0.299266E+03  0.295698E+03
  0.215000E-02  0.500000E-04  0.147677E+03  0.199940E+01  0.259782E+24  0.120799E-01  0.306811E+03  0.299659E+03  0.295870E+03  0.110035E+04  0.413579E+00  0.447003E-05  0.107313E+09  0.139390E+32  0.000000E+00  0.000000E+00  0.000000E+00  0.000000E+00  0.100000E+01  0.306811E+03  0.299659E+03  0.295870E+03
  0.225000E-02  0.500000E-04  0.148785E+03  0.172043E+00  0.254260E+24  0.118231E-01  0.304875E+03  0.297372E+03  0.294875E+03  0.107016E+04  0.417965E+00  0.455990E-05  0.104233E+09  0.132512E+32  0.000000E+00  0.000000E+00  0.000000E+00  0.000000E+00  0.100000E+01  0.304875E+03  0.297372E+03  0.294875E+03
  0.235000E-02  0.500000E-04  0.148887E+03  0.475243E-02  0.254310E+24  0.118254E-01  0.308080E+03  0.300588E+03  0.294706E+03  0.108162E+04  0.416070E+00  0.457094E-05  0.104505E+09  0.132883E+32  0.000000E+00  0.000000E+00  0.000000E+00  0.000000E+00  0.100000E+01  0.308080E+03  0.300588E+03  0.294706E+03
  0.245000E-02  0.500000E-04  0.146468E+03  0.816526E+00  0.253435E+24  0.117847E-01  0.308537E+03  0.301614E+03  0.294613E+03  0.107950E+04  0.409012E+00  0.458842E-05  0.105049E+09  0.133115E+32  0.000000E+00  0.000000E+00  0.000000E+00  0.000000E+00  0.100000E+01  0.308537E+03  0.301614E+03  0.294613E+03
  0.255000E-02  0.500000E-04  0.148013E+03  0.251700E+01  0.248629E+24  0.115612E-01  0.310351E+03  0.300388E+03  0.295978E+03  0.106525E+04  0.412170E+00  0.468398E-05  0.102831E+09  0.127833E+32  0.000000E+00  0.000000E+00  0.000000E+00  0.000000E+00  0.100000E+01  0.310351E+03  0.300388E+03  0.295978E+03
  0.265000E-02  0.500000E-04  0.146412E+03 -0.169133E+01  0.248267E+24  0.115444E-01  0.307652E+03  0.301820E+03  0.296130E+03  0.105446E+04  0.409465E+00  0.468056E-05  0.102760E+09  0.127560E+32  0.000000E+00  0.000000E+00  0.000000E+00  0.000000E+00  0.100000E+01  0.307652E+03  0.301820E+03  0.296130E+03
  0.275000E-02  0.500000E-04  0.147639E+03 -0.187388E+01  0.249191E+24  0.115874E-01  0.306009E+03  0.301101E+03  0.295881E+03  0.105273E+04  0.414008E+00  0.465697E-05  0.102967E+09  0.128292E+32  0.000000E+00  0.000000E+00  0.000000E+00  0.000000E+00  0.100000E+01  0.306009E+03  0.301101E+03  0.295881E+03
  0.285000E-02  0.500000E-04  0.143373E+03  0.220554E+01  0.246327E+24  0.114542E-01  0.307855E+03  0.297775E+03  0.295335E+03  0.104690E+04  0.400855E+00  0.471821E-05  0.102199E+09  0.125872E+32  0.000000E+00  0.000000E+00  0.000000E+00  0.000000E+00  0.100000E+01  0.307855E+03  0.297775E+03  0.295335E+03
  0.295000E-02  0.500000E-04  0.142427E+03 -0.172035E+00  0.250452E+24  0.116460E-01  0.305703E+03  0.294819E+03  0.295260E+03  0.105699E+04  0.399562E+00  0.463237E-05  0.103621E+09  0.129761E+32  0.000000E+00  0.000000E+00  0.000000E+00  0.000000E+00  0.100000E+01  0.305703E+03  0.294819E+03  0.295260E+03
  0.305000E-02  0.500000E-04  0.144736E+03  0.275942E+00  0.246090E+24  0.114432E-01  0.305852E+03  0.298397E+03  0.295744E+03  0.103910E+04  0.405940E+00  0.471505E-05  0.101795E+09  0.125254E+32  0.000000E+00  0.000000E+00  0.000000E+00  0.000000E+00  0.100000E+01  0.305852E+03  0.298397E+03  0.295744E+03
  0.315000E-02  0.500000E-04  0.145247E+03  0.122803E+01  0.246258E+24  0.114510E-01  0.304804E+03  0.299227E+03  0.295837E+03  0.103624E+04  0.408088E+00  0.470779E-05  0.102149E+09  0.125775E+32  0.000000E+00  0.000000E+00  0.000000E+00  0.000000E+00  0.100000E+01  0.304804E+03  0.299227E+03  0.295837E+03
  0.325000E-02  0.500000E-04  0.140260E+03 -0.109707E+01  0.250336E+24  0.116406E-01  0.307730E+03  0.303364E+03  0.295630E+03  0.106351E+04  0.392194E+00  0.464218E-05  0.103719E+09  0.129823E+32  0.000000E+00  0.000000E+00  0.000000E+00  0.000000E+00  0.100000E+01  0.307730E+03  0.303364E+03  0.295630E+03
  0.335000E-02  0.500000E-04  0.138876E+03  0.966386E+00  0.249365E+24  0.115955E-01  0.310368E+03  0.301518E+03  0.296180E+03  0.106847E+04  0.386669E+00  0.467021E-05  0.103429E+09  0.128957E+32  0.000000E+00  0.000000E+00  0.000000E+00  0.000000E+00  0.100000E+01  0.310368E+03  0.301518E+03  0.296180E+03
  0.345000E-02  0.500000E-04  0.137050E+03 -0.183173E+00  0.247534E+24  0.115103E-01  0.311834E+03  0.301597E+03  0.296382E+03  0.106563E+04  0.380678E+00  0.471031E-05  0.102671E+09  0.127073E+32  0.000000E+00  0.000000E+00  0.000000E+00  0.000000E+00  0.100000E+01  0.311834E+03  0.301597E+03  0.296382E+03
  0.355000E-02  0.500000E-04  0.137008E+03  0.477238E+00  0.246725E+24  0.114727E-01  0.311478E+03  0.308743E+03  0.295159E+03  0.106094E+04  0.380780E+00  0.472441E-05  0.102805E+09  0.126822E+32  0.000000E+00  0.000000E+00  0.000000E+00  0.000000E+00  0.100000E+01  0.311478E+03  0.308743E+03  0.295159E+03
  0.365000E-02  0.500000E-04  0.132470E+03  0.599061E+00  0.251091E+24  0.116757E-01  0.301054E+03  0.295140E+03  0.296149E+03  0.104358E+04  0.374489E+00  0.460292E-05  0.103486E+09  0.129922E+32  0.000000E+00  0.000000E+00  0.000000E+00  0.000000E+00  0.100000E+01  0.301054E+03  0.295140E+03  0.296149E+03
  0.375000E-02  0.500000E-04  0.132917E+03 -0.150066E+01  0.245413E+24  0.114117E-01  0.303655E+03  0.298716E+03  0.296386E+03  0.102879E+04  0.374160E+00  0.471955E-05  0.101768E+09  0.124876E+32  0.000000E+00  0.000000E+00  0.000000E+00  0.000000E+00  0.100000E+01  0.303655E+03  0.298716E+03  0.296386E+03
  0.385000E-02  0.500000E-04  0.131347E+03 -0.874447E+00  0.249329E+24  0.115938E-01  0.303735E+03  0.299665E+03  0.295767E+03  0.104548E+04  0.369679E+00  0.464573E-05  0.102873E+09  0.128246E+32  0.000000E+00  0.000000E+00  0.000000E+00  0.000000E+00  0.100000E+01  0.303735E+03  0.299665E+03  0.295767E+03
  0.395000E-02  0.500000E-04  0.132497E+03  0.112576E+01  0.247301E+24  0.114995E-01  0.304236E+03  0.302458E+03  0.296187E+03  0.103869E+04  0.372614E+00  0.468576E-05  0.102420E+09  0.126643E+32  0.000000E+00  0.000000E+00  0.000000E+00  0.000000E+00  0.100000E+01  0.304236E+03  0.302458E+03  0.296187E+03
  0.405000E-02  0.500000E-04  0.132854E+03  0.789006E+00  0.247564E+24  0.115117E-01  0.306223E+03  0.300017E+03  0.295546E+03  0.104658E+04  0.372395E+00  0.468840E-05  0.102152E+09  0.126446E+32  0.000000E+00  0.000000E+00  0.000000E+00  0.000000E+00  0.100000E+01  0.306223E+03  0.300017E+03  0.295546E+03
  0.415000E-02  0.500000E-04  0.132363E+03  0.180270E+01  0.244161E+24  0.113535E-01  0.310166E+03  0.305945E+03  0.295092E+03  0.104549E+04  0.368681E+00  0.476899E-05  0.101015E+09  0.123320E+32  0.000000E+00  0.000000E+00  0.000000E+00  0.000000E+00  0.100000E+01  0.310166E+03  0.305945E+03  0.295092E+03
  0.425000E-02  0.500000E-04  0.132895E+03 -0.174919E+01  0.246402E+24  0.114577E-01  0.305388E+03  0.297517E+03  0.295037E+03  0.103883E+04  0.373044E+00  0.470730E-05  0.102320E+09  0.126059E+32  0.000000E+00  0.000000E+00  0.000000E+00  0.000000E+00  0.100000E+01  0.305388E+03  0.297517E+03  0.295037E+03
  0.435000E-02  0.500000E-04  0.130316E+03  0.153991E+01  0.251739E+24  0.117059E-01  0.302337E+03  0.297761E+03  0.294926E+03  0.105073E+04  0.367640E+00  0.459595E-05  0.103053E+09  0.129712E+32  0.000000E+00  0.000000E+00  0.000000E+00  0.000000E+00  0.100000E+01  0.302337E+03  0.297761E+03  0.294926E+03
  0.445000E-02  0.500000E-04  0.133091E+03 -0.100669E+01  0.247068E+24  0.114887E-01  0.307759E+03  0.302163E+03  0.295651E+03  0.104973E+04  0.372133E+00  0.470369E-05  0.102189E+09  0.126239E+32  0.000000E+00  0.000000E+00  0.000000E+00  0.000000E+00  0.100000E+01  0.307759E+03  0.302163E+03  0.295651E+03
  0.455000E-02  0.500000E-04  0.126278E+03  0.117303E+01  0.247661E+24  0.115162E-01  0.309051E+03  0.302627E+03  0.295890E+03  0.105666E+04  0.352348E+00  0.469736E-05  0.102716E+09  0.127193E+32  0.000000E+00  0.000000E+00  0.000000E+00  0.000000E+00  0.100000E+01  0.309051E+03  0.302627E+03  0.295890E+03
  0.465000E-02  0.500000E-04  0.118945E+03  0.123272E+00  0.252477E+24  0.117402E-01  0.302626E+03  0.295838E+03  0.296566E+03  0.105481E+04  0.335379E+00  0.458362E-05  0.104965E+09  0.132506E+32  0.000000E+00  0.000000E+00  0.000000E+00  0.000000E+00  0.100000E+01  0.302626E+03  0.295838E+03  0.296566E+03
  0.475000E-02  0.500000E-04  0.118611E+03  0.249360E+01  0.245661E+24  0.114232E-01  0.307503E+03  0.300140E+03  0.296114E+03  0.104288E+04  0.331847E+00  0.472966E-05  0.101944E+09  0.125218E+32  0.000000E+00  0.000000E+00  0.000000E+00  0.000000E+00  0.100000E+01  0.307503E+03  0.300140E+03  0.296114E+03
  0.485000E-02  0.500000E-04  0.115310E+03  0.229950E+01  0.245509E+24  0.114162E-01  0.306519E+03  0.304766E+03  0.296962E+03  0.103890E+04  0.323121E+00  0.472878E-05  0.101269E+09  0.124312E+32  0.000000E+00  0.000000E+00  0.000000E+00  0.000000E+00  0.100000E+01  0.306519E+03  0.304766E+03  0.296962E+03
  0.495000E-02  0.500000E-04  0.117053E+03 -0.857148E+00  0.240121E+24  0.111656E-01  0.306375E+03  0.301111E+03  0.296911E+03  0.101562E+04  0.328027E+00  0.483433E-05  0.997516E+08  0.119762E+32  0.000000E+00  0.000000E+00  0.000000E+00  0.000000E+00  0.100000E+01  0.306375E+03  0.301111E+03  0.296911E+03
  0.505000E-02  0.500000E-04  0.117336E+03 -0.388188E+01  0.243234E+24  0.113104E-01  0.310023E+03  0.303520E+03  0.296483E+03  0.104104E+04  0.327050E+00  0.478661E-05  0.101713E+09  0.123700E+32  0.000000E+00  0.000000E+00  0.000000E+00  0.000000E+00  0.100000E+01  0.310023E+03  0.303520E+03  0.296483E+03
  0.515000E-02  0.500000E-04  0.116069E+03 -0.286340E+01  0.242885E+24  0.112942E-01  0.313005E+03  0.309067E+03  0.296702E+03  0.104955E+04  0.321896E+00  0.480496E-05  0.101916E+09  0.123769E+32  0.000000E+00  0.000000E+00  0.000000E+00  0.000000E+00  0.100000E+01  0.313005E+03  0.309067E+03  0.296702E+03
  0.525000E-02  0.500000E-04  0.108781E+03  0.525299E+01  0.248911E+24  0.115743E-01  0.307444E+03  0.303793E+03  0.296177E+03  0.105647E+04  0.304662E+00  0.466768E-05  0.103592E+09  0.128925E+32  0.000000E+00  0.000000E+00  0.000000E+00  0.000000E+00  0.100000E+01  0.307444E+03  0.303793E+03  0.296177E+03
  0.535000E-02  0.500000E-04  0.106328E+03  0.250978E+01  0.248237E+24  0.115430E-01  0.306659E+03  0.301787E+03  0.295891E+03  0.105092E+04  0.297907E+00  0.467735E-05  0.102094E+09  0.126717E+32  0.000000E+00  0.000000E+00  0.000000E+00  0.000000E+00  0.100000E+01  0.306659E+03  0.301787E+03  0.295891E+03
  0.545000E-02  0.500000E-04  0.107474E+03 -0.349891E+01  0.243246E+24  0.113109E-01  0.307024E+03  0.302124E+03  0.296114E+03  0.103102E+04  0.301015E+00  0.477475E-05  0.100837E+09  0.122641E+32  0.000000E+00  0.000000E+00  0.000000E+00  0.000000E+00  0.100000E+01  0.307024E+03  0.302124E+03  0.296114E+03