TITLE=" Box                                                                     /                                                                         "
VARIABLES="X",        "Y",      "Vx   ",      "Vy   ",      "Nden ",      "Rho  ",      "Ttrn ",      "Trot ",      "Tvib ",      "Press",      "Ma   ",      "Lambd",      "Relac",      "Coll ",      "frac1",      "Ttrn1",      "Trot1",      "Tvib1",      "frac2",      "Ttrn2",      "Trot2",      "Tvib2"
ZONE T="DSMC,BG", I=  200, J=   50, F=POINT
 -0.395000E-02  0.500000E-04  0.802517E+03  0.253201E+02  0.128749E+25  0.598685E-01  0.100055E+03  0.840064E+02  0.233316E+03  0.177841E+04  0.393722E+01  0.681581E-06  0.384972E+09  0.247824E+33  0.000000E+00  0.000000E+00  0.000000E+00  0.000000E+00  0.100000E+01  0.100055E+03  0.840064E+02  0.233316E+03
 -0.385000E-02  0.500000E-04  0.742016E+03  0.677613E+02  0.139114E+25  0.646880E-01  0.143724E+03  0.115585E+03  0.246031E+03  0.276024E+04  0.304853E+01  0.690581E-06  0.476690E+09  0.331571E+33  0.000000E+00  0.000000E+00  0.000000E+00  0.000000E+00  0.100000E+01  0.143724E+03  0.115585E+03  0.246031E+03
 -0.375000E-02  0.500000E-04  0.714396E+03  0.889957E+02  0.138348E+25  0.643320E-01  0.159301E+03  0.129690E+03  0.250188E+03  0.304258E+04  0.279777E+01  0.712498E-06  0.528570E+09  0.365634E+33  0.000000E+00  0.000000E+00  0.000000E+00  0.000000E+00  0.100000E+01  0.159301E+03  0.129690E+03  0.250188E+03
 -0.365000E-02  0.500000E-04  0.675317E+03  0.750101E+02  0.111966E+25  0.520640E-01  0.185242E+03  0.148564E+03  0.257113E+03  0.286334E+04  0.244872E+01  0.914224E-06  0.462322E+09  0.258821E+33  0.000000E+00  0.000000E+00  0.000000E+00  0.000000E+00  0.100000E+01  0.185242E+03  0.148564E+03  0.257113E+03
 -0.355000E-02  0.500000E-04  0.628772E+03  0.531012E+02  0.864930E+24  0.402192E-01  0.211857E+03  0.169843E+03  0.264393E+03  0.252972E+04  0.212645E+01  0.122386E-05  0.358200E+09  0.154909E+33  0.000000E+00  0.000000E+00  0.000000E+00  0.000000E+00  0.100000E+01  0.211857E+03  0.169843E+03  0.264393E+03
 -0.345000E-02  0.500000E-04  0.581675E+03  0.393095E+02  0.713136E+24  0.331608E-01  0.235016E+03  0.189039E+03  0.270239E+03  0.231376E+04  0.186535E+01  0.152337E-05  0.292169E+09  0.104178E+33  0.000000E+00  0.000000E+00  0.000000E+00  0.000000E+00  0.100000E+01  0.235016E+03  0.189039E+03  0.270239E+03
 -0.335000E-02  0.500000E-04  0.538265E+03  0.316723E+02  0.618441E+24  0.287575E-01  0.253764E+03  0.207348E+03  0.274384E+03  0.216659E+04  0.166024E+01  0.179066E-05  0.253949E+09  0.785262E+32  0.000000E+00  0.000000E+00  0.000000E+00  0.000000E+00  0.100000E+01  0.253764E+03  0.207348E+03  0.274384E+03
 -0.325000E-02  0.500000E-04  0.499993E+03  0.233441E+02  0.550517E+24  0.255990E-01  0.267924E+03  0.222431E+03  0.277783E+03  0.203625E+04  0.149993E+01  0.203908E-05  0.225380E+09  0.620378E+32  0.000000E+00  0.000000E+00  0.000000E+00  0.000000E+00  0.100000E+01  0.267924E+03  0.222431E+03  0.277783E+03
 -0.315000E-02  0.500000E-04  0.467216E+03  0.191303E+02  0.502317E+24  0.233577E-01  0.278136E+03  0.235139E+03  0.280351E+03  0.192879E+04  0.137528E+01  0.225574E-05  0.205186E+09  0.515343E+32  0.000000E+00  0.000000E+00  0.000000E+00  0.000000E+00  0.100000E+01  0.278136E+03  0.235139E+03  0.280351E+03
 -0.305000E-02  0.500000E-04  0.445039E+03  0.145287E+02  0.458948E+24  0.213411E-01  0.283077E+03  0.243507E+03  0.282510E+03  0.179357E+04  0.129812E+01  0.247979E-05  0.187530E+09  0.430334E+32  0.000000E+00  0.000000E+00  0.000000E+00  0.000000E+00  0.100000E+01  0.283077E+03  0.243507E+03  0.282510E+03
 -0.295000E-02  0.500000E-04  0.419777E+03  0.126992E+02  0.436106E+24  0.202789E-01  0.290113E+03  0.250868E+03  0.283999E+03  0.174666E+04  0.120941E+01  0.262574E-05  0.177497E+09  0.387039E+32  0.000000E+00  0.000000E+00  0.000000E+00  0.000000E+00  0.100000E+01  0.290113E+03  0.250868E+03  0.283999E+03
 -0.285000E-02  0.500000E-04  0.397145E+03  0.117443E+02  0.416832E+24  0.193827E-01  0.294945E+03  0.259664E+03  0.284885E+03  0.169727E+04  0.113477E+01  0.275853E-05  0.170400E+09  0.355141E+32  0.000000E+00  0.000000E+00  0.000000E+00  0.000000E+00  0.100000E+01  0.294945E+03  0.259664E+03  0.284885E+03
 -0.275000E-02  0.500000E-04  0.374991E+03  0.100844E+02  0.400169E+24  0.186079E-01  0.298011E+03  0.264195E+03  0.286301E+03  0.164636E+04  0.106586E+01  0.288083E-05  0.163533E+09  0.327204E+32  0.000000E+00  0.000000E+00  0.000000E+00  0.000000E+00  0.100000E+01  0.298011E+03  0.264195E+03  0.286301E+03
 -0.265000E-02  0.500000E-04  0.360781E+03  0.728754E+01  0.380340E+24  0.176858E-01  0.299187E+03  0.268326E+03  0.287252E+03  0.157095E+04  0.102330E+01  0.303401E-05  0.155115E+09  0.294982E+32  0.000000E+00  0.000000E+00  0.000000E+00  0.000000E+00  0.100000E+01  0.299187E+03  0.268326E+03  0.287252E+03
 -0.255000E-02  0.500000E-04  0.345823E+03  0.731909E+01  0.369252E+24  0.171702E-01  0.300133E+03  0.270830E+03  0.288124E+03  0.152998E+04  0.979343E+00  0.312758E-05  0.150101E+09  0.277126E+32  0.000000E+00  0.000000E+00  0.000000E+00  0.000000E+00  0.100000E+01  0.300133E+03  0.270830E+03  0.288124E+03
 -0.245000E-02  0.500000E-04  0.337999E+03  0.516363E+01  0.354146E+24  0.164678E-01  0.300311E+03  0.273023E+03  0.288455E+03  0.146826E+04  0.956797E+00  0.326147E-05  0.144662E+09  0.256157E+32  0.000000E+00  0.000000E+00  0.000000E+00  0.000000E+00  0.100000E+01  0.300311E+03  0.273023E+03  0.288455E+03
 -0.235000E-02  0.500000E-04  0.323826E+03  0.508152E+01  0.352245E+24  0.163794E-01  0.300939E+03  0.275863E+03  0.288814E+03  0.146343E+04  0.915728E+00  0.328078E-05  0.143898E+09  0.253437E+32  0.000000E+00  0.000000E+00  0.000000E+00  0.000000E+00  0.100000E+01  0.300939E+03  0.275863E+03  0.288814E+03
 -0.225000E-02  0.500000E-04  0.311965E+03  0.683920E+01  0.346417E+24  0.161084E-01  0.302927E+03  0.277609E+03  0.288918E+03  0.144873E+04  0.879390E+00  0.334147E-05  0.141890E+09  0.245766E+32  0.000000E+00  0.000000E+00  0.000000E+00  0.000000E+00  0.100000E+01  0.302927E+03  0.277609E+03  0.288918E+03
 -0.215000E-02  0.500000E-04  0.299689E+03  0.305787E+01  0.339716E+24  0.157968E-01  0.303706E+03  0.279193E+03  0.289846E+03  0.142435E+04  0.843543E+00  0.340958E-05  0.138709E+09  0.235609E+32  0.000000E+00  0.000000E+00  0.000000E+00  0.000000E+00  0.100000E+01  0.303706E+03  0.279193E+03  0.289846E+03
 -0.205000E-02  0.500000E-04  0.288090E+03  0.461639E+01  0.337410E+24  0.156895E-01  0.304445E+03  0.284009E+03  0.290226E+03  0.141813E+04  0.809973E+00  0.343497E-05  0.137883E+09  0.232615E+32  0.000000E+00  0.000000E+00  0.000000E+00  0.000000E+00  0.100000E+01  0.304445E+03  0.284009E+03  0.290226E+03
 -0.195000E-02  0.500000E-04  0.283150E+03  0.481997E+01  0.325513E+24  0.151363E-01  0.305185E+03  0.284538E+03  0.290186E+03  0.137145E+04  0.795132E+00  0.356267E-05  0.133611E+09  0.217460E+32  0.000000E+00  0.000000E+00  0.000000E+00  0.000000E+00  0.100000E+01  0.305185E+03  0.284538E+03  0.290186E+03
 -0.185000E-02  0.500000E-04  0.272207E+03  0.498922E+01  0.325086E+24  0.151165E-01  0.305101E+03  0.284360E+03  0.290480E+03  0.136927E+04  0.764523E+00  0.356711E-05  0.133394E+09  0.216823E+32  0.000000E+00  0.000000E+00  0.000000E+00  0.000000E+00  0.100000E+01  0.305101E+03  0.284360E+03  0.290480E+03
 -0.175000E-02  0.500000E-04  0.263075E+03  0.375311E+01  0.317974E+24  0.147858E-01  0.306992E+03  0.288283E+03  0.290963E+03  0.134762E+04  0.736546E+00  0.365252E-05  0.130747E+09  0.207870E+32  0.000000E+00  0.000000E+00  0.000000E+00  0.000000E+00  0.100000E+01  0.306992E+03  0.288283E+03  0.290963E+03
 -0.165000E-02  0.500000E-04  0.256253E+03  0.543879E+01  0.311353E+24  0.144779E-01  0.308826E+03  0.291273E+03  0.291224E+03  0.132744E+04  0.715401E+00  0.373575E-05  0.127688E+09  0.198781E+32  0.000000E+00  0.000000E+00  0.000000E+00  0.000000E+00  0.100000E+01  0.308826E+03  0.291273E+03  0.291224E+03
 -0.155000E-02  0.500000E-04  0.252724E+03  0.982259E-01  0.305009E+24  0.141829E-01  0.309537E+03  0.289395E+03  0.291919E+03  0.130339E+04  0.704582E+00  0.381565E-05  0.126004E+09  0.192161E+32  0.000000E+00  0.000000E+00  0.000000E+00  0.000000E+00  0.100000E+01  0.309537E+03  0.289395E+03  0.291919E+03
 -0.145000E-02  0.500000E-04  0.247752E+03  0.237597E+01  0.303334E+24  0.141050E-01  0.308542E+03  0.292316E+03  0.291789E+03  0.129206E+04  0.691864E+00  0.383364E-05  0.124713E+09  0.189148E+32  0.000000E+00  0.000000E+00  0.000000E+00  0.000000E+00  0.100000E+01  0.308542E+03  0.292316E+03  0.291789E+03
 -0.135000E-02  0.500000E-04  0.241179E+03  0.270608E+01  0.302344E+24  0.140590E-01  0.309767E+03  0.292789E+03  0.291724E+03  0.129296E+04  0.672185E+00  0.385000E-05  0.124573E+09  0.188320E+32  0.000000E+00  0.000000E+00  0.000000E+00  0.000000E+00  0.100000E+01  0.309767E+03  0.292789E+03  0.291725E+03
 -0.125000E-02  0.500000E-04  0.238732E+03  0.183710E+01  0.298214E+24  0.138670E-01  0.308737E+03  0.294318E+03  0.292038E+03  0.127106E+04  0.666453E+00  0.390007E-05  0.122627E+09  0.182846E+32  0.000000E+00  0.000000E+00  0.000000E+00  0.000000E+00  0.100000E+01  0.308737E+03  0.294318E+03  0.292038E+03
 -0.115000E-02  0.500000E-04  0.230425E+03  0.395988E+01  0.300392E+24  0.139682E-01  0.309094E+03  0.293508E+03  0.292112E+03  0.128182E+04  0.642968E+00  0.387291E-05  0.123496E+09  0.185485E+32  0.000000E+00  0.000000E+00  0.000000E+00  0.000000E+00  0.100000E+01  0.309094E+03  0.293508E+03  0.292112E+03
 -0.105000E-02  0.500000E-04  0.226952E+03  0.165410E+01  0.293610E+24  0.136529E-01  0.309233E+03  0.293687E+03  0.292717E+03  0.125345E+04  0.633056E+00  0.396281E-05  0.121178E+09  0.177896E+32  0.000000E+00  0.000000E+00  0.000000E+00  0.000000E+00  0.100000E+01  0.309233E+03  0.293687E+03  0.292717E+03
 -0.950000E-03  0.500000E-04  0.225024E+03  0.130564E+01  0.288383E+24  0.134098E-01  0.309823E+03  0.292867E+03  0.292924E+03  0.123348E+04  0.627075E+00  0.403656E-05  0.118606E+09  0.171019E+32  0.000000E+00  0.000000E+00  0.000000E+00  0.000000E+00  0.100000E+01  0.309823E+03  0.292867E+03  0.292924E+03
 -0.850000E-03  0.500000E-04  0.221701E+03  0.174454E+01  0.287682E+24  0.133772E-01  0.307782E+03  0.292776E+03  0.292923E+03  0.122238E+04  0.619869E+00  0.403972E-05  0.118501E+09  0.170453E+32  0.000000E+00  0.000000E+00  0.000000E+00  0.000000E+00  0.100000E+01  0.307782E+03  0.292776E+03  0.292923E+03
 -0.750000E-03  0.500000E-04  0.216261E+03  0.104325E+01  0.287350E+24  0.133618E-01  0.307063E+03  0.294334E+03  0.292894E+03  0.121811E+04  0.605355E+00  0.404202E-05  0.117989E+09  0.169520E+32  0.000000E+00  0.000000E+00  0.000000E+00  0.000000E+00  0.100000E+01  0.307063E+03  0.294334E+03  0.292894E+03
 -0.650000E-03  0.500000E-04  0.213659E+03 -0.688181E+00  0.284893E+24  0.132475E-01  0.307562E+03  0.292819E+03  0.293346E+03  0.120966E+04  0.597583E+00  0.407853E-05  0.117378E+09  0.167202E+32  0.000000E+00  0.000000E+00  0.000000E+00  0.000000E+00  0.100000E+01  0.307562E+03  0.292819E+03  0.293346E+03
 -0.550000E-03  0.500000E-04  0.206867E+03  0.543899E+01  0.284090E+24  0.132102E-01  0.307103E+03  0.294612E+03  0.292885E+03  0.120445E+04  0.579214E+00  0.408853E-05  0.117674E+09  0.167150E+32  0.000000E+00  0.000000E+00  0.000000E+00  0.000000E+00  0.100000E+01  0.307103E+03  0.294613E+03  0.292885E+03
 -0.450000E-03  0.500000E-04  0.205994E+03  0.286984E+00  0.279944E+24  0.130174E-01  0.308021E+03  0.295599E+03  0.293071E+03  0.119042E+04  0.575713E+00  0.415219E-05  0.115074E+09  0.161072E+32  0.000000E+00  0.000000E+00  0.000000E+00  0.000000E+00  0.100000E+01  0.308021E+03  0.295599E+03  0.293071E+03
 -0.350000E-03  0.500000E-04  0.200240E+03  0.162319E+01  0.282011E+24  0.131135E-01  0.310058E+03  0.296976E+03  0.293461E+03  0.120714E+04  0.557809E+00  0.412855E-05  0.116618E+09  0.164437E+32  0.000000E+00  0.000000E+00  0.000000E+00  0.000000E+00  0.100000E+01  0.310058E+03  0.296976E+03  0.293461E+03
 -0.250000E-03  0.500000E-04  0.198834E+03  0.443412E+01  0.276578E+24  0.128609E-01  0.309567E+03  0.296455E+03  0.293798E+03  0.118201E+04  0.554450E+00  0.420798E-05  0.114665E+09  0.158569E+32  0.000000E+00  0.000000E+00  0.000000E+00  0.000000E+00  0.100000E+01  0.309567E+03  0.296455E+03  0.293798E+03
 -0.150000E-03  0.500000E-04  0.192996E+03 -0.462074E+00  0.277167E+24  0.128882E-01  0.307738E+03  0.297549E+03  0.293863E+03  0.117753E+04  0.539636E+00  0.419283E-05  0.114506E+09  0.158687E+32  0.000000E+00  0.000000E+00  0.000000E+00  0.000000E+00  0.100000E+01  0.307738E+03  0.297549E+03  0.293863E+03
 -0.499999E-04  0.500000E-04  0.189098E+03  0.213337E+01  0.276959E+24  0.128786E-01  0.310201E+03  0.297826E+03  0.294267E+03  0.118606E+04  0.526664E+00  0.420434E-05  0.114304E+09  0.158288E+32  0.000000E+00  0.000000E+00  0.000000E+00  0.000000E+00  0.100000E+01  0.310201E+03  0.297826E+03  0.294267E+03
  0.499999E-04  0.500000E-04  0.188912E+03  0.207743E+01  0.272218E+24  0.126581E-01  0.308409E+03  0.296575E+03  0.293752E+03  0.115903E+04  0.527671E+00  0.427138E-05  0.111816E+09  0.152191E+32  0.000000E+00  0.000000E+00  0.000000E+00  0.000000E+00  0.100000E+01  0.308409E+03  0.296575E+03  0.293752E+03
  0.150000E-03  0.500000E-04  0.185393E+03 -0.630552E-02  0.273274E+24  0.127073E-01  0.304747E+03  0.295650E+03  0.293692E+03  0.114971E+04  0.520914E+00  0.424218E-05  0.112625E+09  0.153887E+32  0.000000E+00  0.000000E+00  0.000000E+00  0.000000E+00  0.100000E+01  0.304747E+03  0.295650E+03  0.293692E+03
  0.250000E-03  0.500000E-04  0.187153E+03  0.316684E+00  0.268606E+24  0.124902E-01  0.306841E+03  0.295558E+03  0.293852E+03  0.113783E+04  0.524062E+00  0.432330E-05  0.111483E+09  0.149724E+32  0.000000E+00  0.000000E+00  0.000000E+00  0.000000E+00  0.100000E+01  0.306841E+03  0.295558E+03  0.293852E+03
  0.350000E-03  0.500000E-04  0.182359E+03  0.718279E+00  0.270688E+24  0.125870E-01  0.306787E+03  0.293924E+03  0.293930E+03  0.114645E+04  0.510685E+00  0.428986E-05  0.111812E+09  0.151331E+32  0.000000E+00  0.000000E+00  0.000000E+00  0.000000E+00  0.100000E+01  0.306787E+03  0.293924E+03  0.293930E+03
  0.450000E-03  0.500000E-04  0.177788E+03  0.864286E-01  0.272688E+24  0.126800E-01  0.306038E+03  0.295711E+03  0.294704E+03  0.115210E+04  0.498490E+00  0.425580E-05  0.112651E+09  0.153593E+32  0.000000E+00  0.000000E+00  0.000000E+00  0.000000E+00  0.100000E+01  0.306038E+03  0.295711E+03  0.294704E+03
  0.550000E-03  0.500000E-04  0.176895E+03  0.213772E+01  0.269051E+24  0.125109E-01  0.309922E+03  0.300568E+03  0.294805E+03  0.115116E+04  0.492904E+00  0.432695E-05  0.111725E+09  0.150299E+32  0.000000E+00  0.000000E+00  0.000000E+00  0.000000E+00  0.100000E+01  0.309922E+03  0.300568E+03  0.294805E+03
  0.650000E-03  0.500000E-04  0.179813E+03  0.244766E+01  0.259308E+24  0.120578E-01  0.312192E+03  0.301309E+03  0.294540E+03  0.111760E+04  0.499220E+00  0.449772E-05  0.107354E+09  0.139188E+32  0.000000E+00  0.000000E+00  0.000000E+00  0.000000E+00  0.100000E+01  0.312192E+03  0.301309E+03  0.294540E+03
  0.750000E-03  0.500000E-04  0.179461E+03 -0.210083E+01  0.260181E+24  0.120984E-01  0.311036E+03  0.303881E+03  0.294726E+03  0.111721E+04  0.499155E+00  0.447846E-05  0.107278E+09  0.139559E+32  0.000000E+00  0.000000E+00  0.000000E+00  0.000000E+00  0.100000E+01  0.311036E+03  0.303881E+03  0.294726E+03
  0.850000E-03  0.500000E-04  0.177020E+03 -0.285719E-01  0.263230E+24  0.122402E-01  0.310386E+03  0.300119E+03  0.294831E+03  0.112794E+04  0.492848E+00  0.442429E-05  0.108782E+09  0.143174E+32  0.000000E+00  0.000000E+00  0.000000E+00  0.000000E+00  0.100000E+01  0.310386E+03  0.300119E+03  0.294831E+03
  0.950000E-03  0.500000E-04  0.172969E+03  0.274340E+01  0.265336E+24  0.123381E-01  0.308758E+03  0.298005E+03  0.294712E+03  0.113100E+04  0.482897E+00  0.438341E-05  0.110075E+09  0.146034E+32  0.000000E+00  0.000000E+00  0.000000E+00  0.000000E+00  0.100000E+01  0.308758E+03  0.298005E+03  0.294712E+03
  0.105000E-02  0.500000E-04  0.173605E+03  0.128816E+01  0.260013E+24  0.120906E-01  0.308172E+03  0.298091E+03  0.294697E+03  0.110621E+04  0.485086E+00  0.447101E-05  0.107722E+09  0.140046E+32  0.000000E+00  0.000000E+00  0.000000E+00  0.000000E+00  0.100000E+01  0.308172E+03  0.298091E+03  0.294697E+03
  0.115000E-02  0.500000E-04  0.172743E+03  0.986775E+00  0.261780E+24  0.121728E-01  0.309889E+03  0.299530E+03  0.294876E+03  0.111993E+04  0.481333E+00  0.444702E-05  0.108427E+09  0.141920E+32  0.000000E+00  0.000000E+00  0.000000E+00  0.000000E+00  0.100000E+01  0.309889E+03  0.299530E+03  0.294876E+03
  0.125000E-02  0.500000E-04  0.168413E+03 -0.100885E+01  0.262059E+24  0.121858E-01  0.307034E+03  0.298899E+03  0.294752E+03  0.111080E+04  0.471444E+00  0.443200E-05  0.108160E+09  0.141722E+32  0.000000E+00  0.000000E+00  0.000000E+00  0.000000E+00  0.100000E+01  0.307034E+03  0.298899E+03  0.294752E+03
  0.135000E-02  0.500000E-04  0.167119E+03  0.963636E+00  0.263738E+24  0.122638E-01  0.305914E+03  0.296996E+03  0.294805E+03  0.111383E+04  0.468678E+00  0.439978E-05  0.108164E+09  0.142635E+32  0.000000E+00  0.000000E+00  0.000000E+00  0.000000E+00  0.100000E+01  0.305914E+03  0.296996E+03  0.294805E+03
  0.145000E-02  0.500000E-04  0.158760E+03  0.256462E+01  0.268596E+24  0.124897E-01  0.305959E+03  0.299229E+03  0.294263E+03  0.113452E+04  0.445253E+00  0.432036E-05  0.111573E+09  0.149840E+32  0.000000E+00  0.000000E+00  0.000000E+00  0.000000E+00  0.100000E+01  0.305959E+03  0.299229E+03  0.294263E+03
  0.155000E-02  0.500000E-04  0.155196E+03  0.252286E+01  0.264553E+24  0.123017E-01  0.307948E+03  0.298793E+03  0.295159E+03  0.112471E+04  0.433851E+00  0.439348E-05  0.109601E+09  0.144977E+32  0.000000E+00  0.000000E+00  0.000000E+00  0.000000E+00  0.100000E+01  0.307948E+03  0.298793E+03  0.295159E+03
  0.165000E-02  0.500000E-04  0.153507E+03 -0.350871E+00  0.261263E+24  0.121487E-01  0.304960E+03  0.297927E+03  0.295180E+03  0.109994E+04  0.431170E+00  0.443799E-05  0.107617E+09  0.140582E+32  0.000000E+00  0.000000E+00  0.000000E+00  0.000000E+00  0.100000E+01  0.304960E+03  0.297927E+03  0.295180E+03
  0.175000E-02  0.500000E-04  0.155402E+03  0.423108E+00  0.257266E+24  0.119629E-01  0.304729E+03  0.296949E+03  0.295337E+03  0.108229E+04  0.436659E+00  0.450607E-05  0.106235E+09  0.136654E+32  0.000000E+00  0.000000E+00  0.000000E+00  0.000000E+00  0.100000E+01  0.304729E+03  0.296949E+03  0.295337E+03
  0.185000E-02  0.500000E-04  0.153351E+03 -0.103688E+01  0.260073E+24  0.120934E-01  0.305658E+03  0.298878E+03  0.295512E+03  0.109744E+04  0.430250E+00  0.446083E-05  0.107741E+09  0.140103E+32  0.000000E+00  0.000000E+00  0.000000E+00  0.000000E+00  0.100000E+01  0.305658E+03  0.298878E+03  0.295512E+03
  0.195000E-02  0.500000E-04  0.150840E+03  0.190049E+01  0.259815E+24  0.120814E-01  0.307236E+03  0.300444E+03  0.295525E+03  0.110201E+04  0.422139E+00  0.447102E-05  0.107957E+09  0.140244E+32  0.000000E+00  0.000000E+00  0.000000E+00  0.000000E+00  0.100000E+01  0.307236E+03  0.300444E+03  0.295525E+03
  0.205000E-02  0.500000E-04  0.149847E+03  0.216711E+01  0.254523E+24  0.118353E-01  0.306484E+03  0.301850E+03  0.295966E+03  0.107692E+04  0.419884E+00  0.456118E-05  0.104972E+09  0.133589E+32  0.000000E+00  0.000000E+00  0.000000E+00  0.000000E+00  0.100000E+01  0.306484E+03  0.301850E+03  0.295966E+03
  0.215000E-02  0.500000E-04  0.150063E+03 -0.114505E+01  0.254519E+24  0.118351E-01  0.305754E+03  0.297872E+03  0.295635E+03  0.107434E+04  0.420960E+00  0.455854E-05  0.104605E+09  0.133119E+32  0.000000E+00  0.000000E+00  0.000000E+00  0.000000E+00  0.100000E+01  0.305754E+03  0.297872E+03  0.295635E+03
  0.225000E-02  0.500000E-04  0.152436E+03 -0.252629E+00  0.251014E+24  0.116721E-01  0.306575E+03  0.297874E+03  0.295057E+03  0.106239E+04  0.427033E+00  0.462530E-05  0.103707E+09  0.130159E+32  0.000000E+00  0.000000E+00  0.000000E+00  0.000000E+00  0.100000E+01  0.306575E+03  0.297874E+03  0.295057E+03
  0.235000E-02  0.500000E-04  0.148820E+03  0.519482E+00  0.256650E+24  0.119342E-01  0.303074E+03  0.296566E+03  0.294839E+03  0.107384E+04  0.419306E+00  0.451075E-05  0.105456E+09  0.135326E+32  0.000000E+00  0.000000E+00  0.000000E+00  0.000000E+00  0.100000E+01  0.303074E+03  0.296566E+03  0.294839E+03
  0.245000E-02  0.500000E-04  0.152692E+03 -0.492120E+00  0.250006E+24  0.116253E-01  0.305804E+03  0.296564E+03  0.295225E+03  0.105546E+04  0.428291E+00  0.464101E-05  0.103457E+09  0.129324E+32  0.000000E+00  0.000000E+00  0.000000E+00  0.000000E+00  0.100000E+01  0.305804E+03  0.296564E+03  0.295225E+03
  0.255000E-02  0.500000E-04  0.148041E+03  0.180712E+00  0.253509E+24  0.117882E-01  0.306327E+03  0.299521E+03  0.295306E+03  0.107208E+04  0.414887E+00  0.457884E-05  0.104758E+09  0.132785E+32  0.000000E+00  0.000000E+00  0.000000E+00  0.000000E+00  0.100000E+01  0.306327E+03  0.299521E+03  0.295306E+03
  0.265000E-02  0.500000E-04  0.147508E+03  0.116001E+01  0.254084E+24  0.118149E-01  0.307703E+03  0.298692E+03  0.295414E+03  0.107934E+04  0.412480E+00  0.457360E-05  0.105300E+09  0.133775E+32  0.000000E+00  0.000000E+00  0.000000E+00  0.000000E+00  0.100000E+01  0.307703E+03  0.298692E+03  0.295414E+03
  0.275000E-02  0.500000E-04  0.146803E+03  0.682092E+00  0.251165E+24  0.116792E-01  0.306414E+03  0.300332E+03  0.295140E+03  0.106247E+04  0.411364E+00  0.462190E-05  0.104628E+09  0.131395E+32  0.000000E+00  0.000000E+00  0.000000E+00  0.000000E+00  0.100000E+01  0.306414E+03  0.300332E+03  0.295140E+03
  0.285000E-02  0.500000E-04  0.146100E+03  0.788378E+00  0.250674E+24  0.116563E-01  0.306531E+03  0.298087E+03  0.295273E+03  0.106080E+04  0.409317E+00  0.463140E-05  0.103706E+09  0.129982E+32  0.000000E+00  0.000000E+00  0.000000E+00  0.000000E+00  0.100000E+01  0.306531E+03  0.298087E+03  0.295273E+03
  0.295000E-02  0.500000E-04  0.143013E+03  0.627463E+00  0.250203E+24  0.116344E-01  0.306899E+03  0.297997E+03  0.294862E+03  0.106008E+04  0.400426E+00  0.464151E-05  0.103452E+09  0.129420E+32  0.000000E+00  0.000000E+00  0.000000E+00  0.000000E+00  0.100000E+01  0.306899E+03  0.297997E+03  0.294862E+03
  0.305000E-02  0.500000E-04  0.143585E+03 -0.651793E+00  0.246868E+24  0.114794E-01  0.308385E+03  0.300004E+03  0.294905E+03  0.105101E+04  0.401059E+00  0.470989E-05  0.101959E+09  0.125852E+32  0.000000E+00  0.000000E+00  0.000000E+00  0.000000E+00  0.100000E+01  0.308385E+03  0.300004E+03  0.294905E+03
  0.315000E-02  0.500000E-04  0.138518E+03  0.279699E+01  0.252378E+24  0.117356E-01  0.306370E+03  0.301155E+03  0.295387E+03  0.106745E+04  0.388251E+00  0.459952E-05  0.104777E+09  0.132218E+32  0.000000E+00  0.000000E+00  0.000000E+00  0.000000E+00  0.100000E+01  0.306370E+03  0.301155E+03  0.295387E+03
  0.325000E-02  0.500000E-04  0.136980E+03 -0.164974E+01  0.250949E+24  0.116691E-01  0.304933E+03  0.298448E+03  0.295404E+03  0.105642E+04  0.384793E+00  0.462029E-05  0.103828E+09  0.130278E+32  0.000000E+00  0.000000E+00  0.000000E+00  0.000000E+00  0.100000E+01  0.304933E+03  0.298448E+03  0.295404E+03
  0.335000E-02  0.500000E-04  0.133063E+03  0.250060E+01  0.251880E+24  0.117124E-01  0.302995E+03  0.298372E+03  0.295635E+03  0.105361E+04  0.375022E+00  0.459587E-05  0.103478E+09  0.130321E+32  0.000000E+00  0.000000E+00  0.000000E+00  0.000000E+00  0.100000E+01  0.302995E+03  0.298372E+03  0.295635E+03
  0.345000E-02  0.500000E-04  0.134562E+03  0.110289E+01  0.247452E+24  0.115065E-01  0.305930E+03  0.297066E+03  0.295209E+03  0.104511E+04  0.377369E+00  0.468940E-05  0.102245E+09  0.126503E+32  0.000000E+00  0.000000E+00  0.000000E+00  0.000000E+00  0.100000E+01  0.305930E+03  0.297066E+03  0.295209E+03
  0.355000E-02  0.500000E-04  0.136199E+03 -0.203295E+01  0.242334E+24  0.112685E-01  0.310073E+03  0.303849E+03  0.295687E+03  0.103735E+04  0.379429E+00  0.480457E-05  0.100794E+09  0.122129E+32  0.000000E+00  0.000000E+00  0.000000E+00  0.000000E+00  0.100000E+01  0.310073E+03  0.303849E+03  0.295687E+03
  0.365000E-02  0.500000E-04  0.135207E+03  0.148659E+01  0.243500E+24  0.113227E-01  0.308749E+03  0.300044E+03  0.295412E+03  0.103789E+04  0.377454E+00  0.477645E-05  0.100772E+09  0.122690E+32  0.000000E+00  0.000000E+00  0.000000E+00  0.000000E+00  0.100000E+01  0.308749E+03  0.300044E+03  0.295412E+03
  0.375000E-02  0.500000E-04  0.131887E+03  0.233698E+01  0.246381E+24  0.114567E-01  0.306537E+03  0.300656E+03  0.295566E+03  0.104265E+04  0.369548E+00  0.471212E-05  0.102510E+09  0.126283E+32  0.000000E+00  0.000000E+00  0.000000E+00  0.000000E+00  0.100000E+01  0.306537E+03  0.300656E+03  0.295566E+03
  0.385000E-02  0.500000E-04  0.130104E+03 -0.128260E+01  0.248515E+24  0.115559E-01  0.308685E+03  0.304820E+03  0.295448E+03  0.105905E+04  0.363241E+00  0.467983E-05  0.103456E+09  0.128552E+32  0.000000E+00  0.000000E+00  0.000000E+00  0.000000E+00  0.100000E+01  0.308685E+03  0.304820E+03  0.295448E+03
  0.395000E-02  0.500000E-04  0.130584E+03  0.105303E+01  0.243861E+24  0.113395E-01  0.313931E+03  0.306994E+03  0.295992E+03  0.105688E+04  0.361516E+00  0.478927E-05  0.101627E+09  0.123915E+32  0.000000E+00  0.000000E+00  0.000000E+00  0.000000E+00  0.100000E+01  0.313931E+03  0.306994E+03  0.295992E+03
  0.405000E-02  0.500000E-04  0.129250E+03  0.411165E-01  0.242974E+24  0.112983E-01  0.310811E+03  0.306578E+03  0.295532E+03  0.104257E+04  0.359604E+00  0.479477E-05  0.101479E+09  0.123283E+32  0.000000E+00  0.000000E+00  0.000000E+00  0.000000E+00  0.100000E+01  0.310811E+03  0.306578E+03  0.295532E+03
  0.415000E-02  0.500000E-04  0.131194E+03  0.186267E+01  0.239543E+24  0.111388E-01  0.310714E+03  0.303644E+03  0.296079E+03  0.102753E+04  0.365105E+00  0.486305E-05  0.994731E+08  0.119141E+32  0.000000E+00  0.000000E+00  0.000000E+00  0.000000E+00  0.100000E+01  0.310714E+03  0.303644E+03  0.296079E+03
  0.425000E-02  0.500000E-04  0.127294E+03  0.157013E+01  0.239559E+24  0.111395E-01  0.313008E+03  0.305713E+03  0.295663E+03  0.103518E+04  0.352943E+00  0.487168E-05  0.996074E+08  0.119309E+32  0.000000E+00  0.000000E+00  0.000000E+00  0.000000E+00  0.100000E+01  0.313008E+03  0.305713E+03  0.295663E+03
  0.435000E-02  0.500000E-04  0.125860E+03 -0.232077E+01  0.243236E+24  0.113105E-01  0.310256E+03  0.303938E+03  0.295494E+03  0.104183E+04  0.350543E+00  0.478746E-05  0.101480E+09  0.123418E+32  0.000000E+00  0.000000E+00  0.000000E+00  0.000000E+00  0.100000E+01  0.310256E+03  0.303938E+03  0.295494E+03
  0.445000E-02  0.500000E-04  0.125900E+03 -0.277597E+00  0.245931E+24  0.114358E-01  0.305634E+03  0.301541E+03  0.295759E+03  0.103768E+04  0.353238E+00  0.471726E-05  0.101689E+09  0.125042E+32  0.000000E+00  0.000000E+00  0.000000E+00  0.000000E+00  0.100000E+01  0.305634E+03  0.301541E+03  0.295759E+03
  0.455000E-02  0.500000E-04  0.125829E+03  0.255156E+01  0.241834E+24  0.112453E-01  0.309198E+03  0.303207E+03  0.296043E+03  0.103229E+04  0.351069E+00  0.481110E-05  0.999706E+08  0.120882E+32  0.000000E+00  0.000000E+00  0.000000E+00  0.000000E+00  0.100000E+01  0.309198E+03  0.303207E+03  0.296043E+03
  0.465000E-02  0.500000E-04  0.126610E+03 -0.308589E+01  0.240907E+24  0.112022E-01  0.307094E+03  0.301794E+03  0.295302E+03  0.102134E+04  0.354489E+00  0.482139E-05  0.995960E+08  0.119967E+32  0.000000E+00  0.000000E+00  0.000000E+00  0.000000E+00  0.100000E+01  0.307094E+03  0.301794E+03  0.295302E+03
  0.475000E-02  0.500000E-04  0.126494E+03  0.229359E+01  0.238524E+24  0.110914E-01  0.306853E+03  0.301687E+03  0.295945E+03  0.101044E+04  0.354257E+00  0.486860E-05  0.987702E+08  0.117795E+32  0.000000E+00  0.000000E+00  0.000000E+00  0.000000E+00  0.100000E+01  0.306853E+03  0.301687E+03  0.295945E+03
  0.485000E-02  0.500000E-04  0.126631E+03 -0.187447E+01  0.239127E+24  0.111194E-01  0.307115E+03  0.300486E+03  0.296538E+03  0.101386E+04  0.354469E+00  0.485735E-05  0.991685E+08  0.118569E+32  0.000000E+00  0.000000E+00  0.000000E+00  0.000000E+00  0.100000E+01  0.307115E+03  0.300486E+03  0.296538E+03
  0.495000E-02  0.500000E-04  0.124277E+03  0.478026E+00  0.241897E+24  0.112482E-01  0.307685E+03  0.302590E+03  0.296152E+03  0.102751E+04  0.347521E+00  0.480396E-05  0.997630E+08  0.120662E+32  0.000000E+00  0.000000E+00  0.000000E+00  0.000000E+00  0.100000E+01  0.307685E+03  0.302590E+03  0.296152E+03
  0.505000E-02  0.500000E-04  0.125301E+03 -0.675578E+00  0.242832E+24  0.112917E-01  0.311406E+03  0.305349E+03  0.296102E+03  0.104396E+04  0.348287E+00  0.479986E-05  0.100709E+09  0.122277E+32  0.000000E+00  0.000000E+00  0.000000E+00  0.000000E+00  0.100000E+01  0.311406E+03  0.305349E+03  0.296102E+03
  0.515000E-02  0.500000E-04  0.126530E+03 -0.380311E-01  0.241376E+24  0.112240E-01  0.312793E+03  0.305466E+03  0.296386E+03  0.104232E+04  0.350919E+00  0.483418E-05  0.100091E+09  0.120798E+32  0.000000E+00  0.000000E+00  0.000000E+00  0.000000E+00  0.100000E+01  0.312793E+03  0.305466E+03  0.296386E+03
  0.525000E-02  0.500000E-04  0.121274E+03  0.333929E+01  0.244792E+24  0.113828E-01  0.308802E+03  0.307054E+03  0.295650E+03  0.104358E+04  0.338637E+00  0.475145E-05  0.101876E+09  0.124692E+32  0.000000E+00  0.000000E+00  0.000000E+00  0.000000E+00  0.100000E+01  0.308802E+03  0.307054E+03  0.295650E+03
  0.535000E-02  0.500000E-04  0.116142E+03  0.956973E+00  0.244569E+24  0.113724E-01  0.306228E+03  0.303546E+03  0.295247E+03  0.103394E+04  0.325553E+00  0.474584E-05  0.101680E+09  0.124338E+32  0.000000E+00  0.000000E+00  0.000000E+00  0.000000E+00  0.100000E+01  0.306228E+03  0.303546E+03  0.295247E+03
  0.545000E-02  0.500000E-04  0.117812E+03 -0.113414E+01  0.243664E+24  0.113304E-01  0.306524E+03  0.303764E+03  0.295607E+03  0.103111E+04  0.330081E+00  0.476462E-05  0.100782E+09  0.122784E+32  0.000000E+00  0.000000E+00  0.000000E+00  0.000000E+00  0.100000E+01  0.306524E+03  0.303764E+03  0.295607E+03