TITLE=" Box                                                                     /                                                                         "
VARIABLES="X",        "Y",      "Vx   ",      "Vy   ",      "Nden ",      "Rho  ",      "Ttrn ",      "Trot ",      "Tvib ",      "Press",      "Ma   ",      "Lambd",      "Relac",      "Coll ",      "frac1",      "Ttrn1",      "Trot1",      "Tvib1",      "frac2",      "Ttrn2",      "Trot2",      "Tvib2"
ZONE T="DSMC,BG", I=  200, J=   50, F=POINT
 -0.395000E-02  0.500000E-04  0.803185E+03  0.254326E+02  0.128767E+25  0.598767E-01  0.993663E+02  0.838365E+02  0.233672E+03  0.176641E+04  0.395414E+01  0.680312E-06  0.384078E+09  0.247283E+33  0.000000E+00  0.000000E+00  0.000000E+00  0.000000E+00  0.100000E+01  0.993663E+02  0.838365E+02  0.233672E+03
 -0.385000E-02  0.500000E-04  0.741163E+03  0.682105E+02  0.139399E+25  0.648206E-01  0.144693E+03  0.116399E+03  0.246821E+03  0.278456E+04  0.303501E+01  0.690326E-06  0.477315E+09  0.332687E+33  0.000000E+00  0.000000E+00  0.000000E+00  0.000000E+00  0.100000E+01  0.144693E+03  0.116399E+03  0.246821E+03
 -0.375000E-02  0.500000E-04  0.712940E+03  0.896172E+02  0.138474E+25  0.643904E-01  0.161266E+03  0.130489E+03  0.250972E+03  0.308291E+04  0.277539E+01  0.714037E-06  0.530925E+09  0.367597E+33  0.000000E+00  0.000000E+00  0.000000E+00  0.000000E+00  0.100000E+01  0.161266E+03  0.130489E+03  0.250972E+03
 -0.365000E-02  0.500000E-04  0.678517E+03  0.737079E+02  0.110794E+25  0.515194E-01  0.183460E+03  0.148428E+03  0.257394E+03  0.280613E+04  0.247159E+01  0.921658E-06  0.457969E+09  0.253702E+33  0.000000E+00  0.000000E+00  0.000000E+00  0.000000E+00  0.100000E+01  0.183460E+03  0.148428E+03  0.257394E+03
 -0.355000E-02  0.500000E-04  0.627489E+03  0.529288E+02  0.865383E+24  0.402403E-01  0.213861E+03  0.170898E+03  0.264699E+03  0.255499E+04  0.211212E+01  0.122611E-05  0.357267E+09  0.154586E+33  0.000000E+00  0.000000E+00  0.000000E+00  0.000000E+00  0.100000E+01  0.213861E+03  0.170898E+03  0.264699E+03
 -0.345000E-02  0.500000E-04  0.582007E+03  0.394160E+02  0.712822E+24  0.331462E-01  0.236540E+03  0.190702E+03  0.270062E+03  0.232775E+04  0.186041E+01  0.152650E-05  0.293128E+09  0.104474E+33  0.000000E+00  0.000000E+00  0.000000E+00  0.000000E+00  0.100000E+01  0.236540E+03  0.190702E+03  0.270061E+03
 -0.335000E-02  0.500000E-04  0.538929E+03  0.305176E+02  0.615388E+24  0.286155E-01  0.255144E+03  0.208613E+03  0.274400E+03  0.216762E+04  0.165758E+01  0.180198E-05  0.252496E+09  0.776914E+32  0.000000E+00  0.000000E+00  0.000000E+00  0.000000E+00  0.100000E+01  0.255144E+03  0.208613E+03  0.274400E+03
 -0.325000E-02  0.500000E-04  0.502562E+03  0.233534E+02  0.546794E+24  0.254259E-01  0.267597E+03  0.222994E+03  0.277715E+03  0.202001E+04  0.150854E+01  0.205234E-05  0.224221E+09  0.613014E+32  0.000000E+00  0.000000E+00  0.000000E+00  0.000000E+00  0.100000E+01  0.267597E+03  0.222994E+03  0.277715E+03
 -0.315000E-02  0.500000E-04  0.470200E+03  0.167136E+02  0.501039E+24  0.232983E-01  0.275992E+03  0.233457E+03  0.280215E+03  0.190905E+04  0.138915E+01  0.225712E-05  0.203845E+09  0.510671E+32  0.000000E+00  0.000000E+00  0.000000E+00  0.000000E+00  0.100000E+01  0.275992E+03  0.233457E+03  0.280215E+03
 -0.305000E-02  0.500000E-04  0.438198E+03  0.166006E+02  0.469308E+24  0.218228E-01  0.285251E+03  0.244333E+03  0.282229E+03  0.184814E+04  0.127353E+01  0.242970E-05  0.190817E+09  0.447761E+32  0.000000E+00  0.000000E+00  0.000000E+00  0.000000E+00  0.100000E+01  0.285251E+03  0.244333E+03  0.282229E+03
 -0.295000E-02  0.500000E-04  0.419815E+03  0.111908E+02  0.434069E+24  0.201842E-01  0.286861E+03  0.249159E+03  0.283649E+03  0.171902E+04  0.121623E+01  0.263064E-05  0.176358E+09  0.382758E+32  0.000000E+00  0.000000E+00  0.000000E+00  0.000000E+00  0.100000E+01  0.286861E+03  0.249159E+03  0.283649E+03
 -0.285000E-02  0.500000E-04  0.397235E+03  0.113794E+02  0.418340E+24  0.194528E-01  0.288972E+03  0.254885E+03  0.285074E+03  0.166892E+04  0.114667E+01  0.273456E-05  0.169295E+09  0.354114E+32  0.000000E+00  0.000000E+00  0.000000E+00  0.000000E+00  0.100000E+01  0.288972E+03  0.254885E+03  0.285074E+03
 -0.275000E-02  0.500000E-04  0.375395E+03  0.124603E+02  0.400855E+24  0.186397E-01  0.293265E+03  0.260398E+03  0.286389E+03  0.162292E+04  0.107582E+01  0.286438E-05  0.162216E+09  0.325124E+32  0.000000E+00  0.000000E+00  0.000000E+00  0.000000E+00  0.100000E+01  0.293265E+03  0.260398E+03  0.286389E+03
 -0.265000E-02  0.500000E-04  0.355063E+03  0.925799E+01  0.388534E+24  0.180668E-01  0.296890E+03  0.267660E+03  0.287235E+03  0.159248E+04  0.101110E+01  0.296431E-05  0.157585E+09  0.306136E+32  0.000000E+00  0.000000E+00  0.000000E+00  0.000000E+00  0.100000E+01  0.296890E+03  0.267660E+03  0.287235E+03
 -0.255000E-02  0.500000E-04  0.339306E+03  0.796856E+01  0.373197E+24  0.173537E-01  0.298793E+03  0.270557E+03  0.288027E+03  0.153942E+04  0.963087E+00  0.309106E-05  0.152627E+09  0.284799E+32  0.000000E+00  0.000000E+00  0.000000E+00  0.000000E+00  0.100000E+01  0.298793E+03  0.270557E+03  0.288027E+03
 -0.245000E-02  0.500000E-04  0.325832E+03  0.547233E+01  0.364752E+24  0.169610E-01  0.298849E+03  0.271565E+03  0.288513E+03  0.150487E+04  0.924634E+00  0.316277E-05  0.148824E+09  0.271419E+32  0.000000E+00  0.000000E+00  0.000000E+00  0.000000E+00  0.100000E+01  0.298849E+03  0.271565E+03  0.288513E+03
 -0.235000E-02  0.500000E-04  0.317801E+03  0.315105E+01  0.354998E+24  0.165074E-01  0.300377E+03  0.273866E+03  0.289507E+03  0.147211E+04  0.899462E+00  0.325382E-05  0.145055E+09  0.257471E+32  0.000000E+00  0.000000E+00  0.000000E+00  0.000000E+00  0.100000E+01  0.300377E+03  0.273866E+03  0.289507E+03
 -0.225000E-02  0.500000E-04  0.298158E+03  0.102262E+02  0.356091E+24  0.165582E-01  0.303999E+03  0.280968E+03  0.289832E+03  0.149445E+04  0.839279E+00  0.325356E-05  0.145773E+09  0.259543E+32  0.000000E+00  0.000000E+00  0.000000E+00  0.000000E+00  0.100000E+01  0.303999E+03  0.280968E+03  0.289832E+03
 -0.215000E-02  0.500000E-04  0.292606E+03  0.437225E+01  0.337611E+24  0.156989E-01  0.306209E+03  0.281981E+03  0.290050E+03  0.142719E+04  0.820283E+00  0.343788E-05  0.138280E+09  0.233423E+32  0.000000E+00  0.000000E+00  0.000000E+00  0.000000E+00  0.100000E+01  0.306209E+03  0.281981E+03  0.290050E+03
 -0.205000E-02  0.500000E-04  0.283449E+03  0.469194E+01  0.328089E+24  0.152562E-01  0.306518E+03  0.281829E+03  0.290477E+03  0.138835E+04  0.794231E+00  0.353855E-05  0.135230E+09  0.221837E+32  0.000000E+00  0.000000E+00  0.000000E+00  0.000000E+00  0.100000E+01  0.306518E+03  0.281829E+03  0.290477E+03
 -0.195000E-02  0.500000E-04  0.279810E+03  0.115126E+01  0.321457E+24  0.149477E-01  0.306592E+03  0.284742E+03  0.291067E+03  0.136061E+04  0.783839E+00  0.361177E-05  0.131935E+09  0.212057E+32  0.000000E+00  0.000000E+00  0.000000E+00  0.000000E+00  0.100000E+01  0.306592E+03  0.284742E+03  0.291067E+03
 -0.185000E-02  0.500000E-04  0.271105E+03  0.324426E+01  0.323224E+24  0.150299E-01  0.309688E+03  0.290733E+03  0.291513E+03  0.138190E+04  0.755697E+00  0.360105E-05  0.132834E+09  0.214676E+32  0.000000E+00  0.000000E+00  0.000000E+00  0.000000E+00  0.100000E+01  0.309688E+03  0.290733E+03  0.291513E+03
 -0.175000E-02  0.500000E-04  0.264144E+03  0.313203E+01  0.315858E+24  0.146874E-01  0.307768E+03  0.289610E+03  0.291195E+03  0.134203E+04  0.738584E+00  0.367932E-05  0.129988E+09  0.205288E+32  0.000000E+00  0.000000E+00  0.000000E+00  0.000000E+00  0.100000E+01  0.307768E+03  0.289610E+03  0.291195E+03
 -0.165000E-02  0.500000E-04  0.263340E+03  0.288218E+01  0.306310E+24  0.142434E-01  0.305429E+03  0.286157E+03  0.291241E+03  0.129158E+04  0.739142E+00  0.378678E-05  0.124985E+09  0.191421E+32  0.000000E+00  0.000000E+00  0.000000E+00  0.000000E+00  0.100000E+01  0.305429E+03  0.286157E+03  0.291241E+03
 -0.155000E-02  0.500000E-04  0.253833E+03  0.291892E+01  0.306945E+24  0.142730E-01  0.305309E+03  0.284346E+03  0.291064E+03  0.129375E+04  0.712602E+00  0.377856E-05  0.126672E+09  0.194407E+32  0.000000E+00  0.000000E+00  0.000000E+00  0.000000E+00  0.100000E+01  0.305309E+03  0.284346E+03  0.291064E+03
 -0.145000E-02  0.500000E-04  0.248036E+03  0.333833E+01  0.304406E+24  0.141549E-01  0.308910E+03  0.289100E+03  0.291277E+03  0.129818E+04  0.692273E+00  0.382127E-05  0.125856E+09  0.191557E+32  0.000000E+00  0.000000E+00  0.000000E+00  0.000000E+00  0.100000E+01  0.308910E+03  0.289100E+03  0.291277E+03
 -0.135000E-02  0.500000E-04  0.241805E+03  0.437693E+01  0.302035E+24  0.140446E-01  0.307317E+03  0.289319E+03  0.291451E+03  0.128142E+04  0.676681E+00  0.384629E-05  0.123915E+09  0.187133E+32  0.000000E+00  0.000000E+00  0.000000E+00  0.000000E+00  0.100000E+01  0.307317E+03  0.289319E+03  0.291451E+03
 -0.125000E-02  0.500000E-04  0.237775E+03  0.187983E+01  0.299091E+24  0.139077E-01  0.304428E+03  0.287283E+03  0.291739E+03  0.125701E+04  0.668464E+00  0.387499E-05  0.122433E+09  0.183094E+32  0.000000E+00  0.000000E+00  0.000000E+00  0.000000E+00  0.100000E+01  0.304428E+03  0.287283E+03  0.291739E+03
 -0.115000E-02  0.500000E-04  0.233799E+03  0.642790E+00  0.296083E+24  0.137678E-01  0.304661E+03  0.289088E+03  0.292164E+03  0.124531E+04  0.657017E+00  0.391511E-05  0.122672E+09  0.181606E+32  0.000000E+00  0.000000E+00  0.000000E+00  0.000000E+00  0.100000E+01  0.304661E+03  0.289088E+03  0.292164E+03
 -0.105000E-02  0.500000E-04  0.232315E+03  0.649343E+00  0.291343E+24  0.135475E-01  0.306084E+03  0.290387E+03  0.292041E+03  0.123110E+04  0.651326E+00  0.398344E-05  0.120025E+09  0.174842E+32  0.000000E+00  0.000000E+00  0.000000E+00  0.000000E+00  0.100000E+01  0.306084E+03  0.290387E+03  0.292041E+03
 -0.950000E-03  0.500000E-04  0.224463E+03  0.118615E+01  0.293037E+24  0.136262E-01  0.308554E+03  0.295461E+03  0.291904E+03  0.124825E+04  0.626796E+00  0.396838E-05  0.119962E+09  0.175766E+32  0.000000E+00  0.000000E+00  0.000000E+00  0.000000E+00  0.100000E+01  0.308554E+03  0.295461E+03  0.291904E+03
 -0.850000E-03  0.500000E-04  0.220473E+03  0.368589E+01  0.289655E+24  0.134690E-01  0.307107E+03  0.294047E+03  0.292130E+03  0.122806E+04  0.617180E+00  0.401000E-05  0.120060E+09  0.173880E+32  0.000000E+00  0.000000E+00  0.000000E+00  0.000000E+00  0.100000E+01  0.307107E+03  0.294047E+03  0.292130E+03
 -0.750000E-03  0.500000E-04  0.214009E+03  0.868950E+00  0.293412E+24  0.136437E-01  0.304552E+03  0.291080E+03  0.292613E+03  0.123364E+04  0.601513E+00  0.395039E-05  0.120748E+09  0.177145E+32  0.000000E+00  0.000000E+00  0.000000E+00  0.000000E+00  0.100000E+01  0.304552E+03  0.291080E+03  0.292613E+03
 -0.650000E-03  0.500000E-04  0.213307E+03  0.306268E+01  0.288265E+24  0.134043E-01  0.303688E+03  0.290169E+03  0.292515E+03  0.120856E+04  0.600451E+00  0.401808E-05  0.119129E+09  0.171703E+32  0.000000E+00  0.000000E+00  0.000000E+00  0.000000E+00  0.100000E+01  0.303688E+03  0.290169E+03  0.292515E+03
 -0.550000E-03  0.500000E-04  0.211387E+03 -0.631235E+00  0.280236E+24  0.130310E-01  0.305941E+03  0.294730E+03  0.293113E+03  0.118362E+04  0.592792E+00  0.414084E-05  0.115311E+09  0.161572E+32  0.000000E+00  0.000000E+00  0.000000E+00  0.000000E+00  0.100000E+01  0.305941E+03  0.294730E+03  0.293113E+03
 -0.450000E-03  0.500000E-04  0.210691E+03  0.256055E+01  0.279043E+24  0.129755E-01  0.305609E+03  0.292283E+03  0.293467E+03  0.117730E+04  0.591202E+00  0.415742E-05  0.114387E+09  0.159595E+32  0.000000E+00  0.000000E+00  0.000000E+00  0.000000E+00  0.100000E+01  0.305609E+03  0.292283E+03  0.293467E+03
 -0.350000E-03  0.500000E-04  0.201443E+03 -0.514629E+00  0.284078E+24  0.132096E-01  0.306392E+03  0.296065E+03  0.294151E+03  0.120161E+04  0.564490E+00  0.408634E-05  0.117353E+09  0.166687E+32  0.000000E+00  0.000000E+00  0.000000E+00  0.000000E+00  0.100000E+01  0.306392E+03  0.296065E+03  0.294151E+03
 -0.250000E-03  0.500000E-04  0.204751E+03  0.274797E+01  0.272913E+24  0.126905E-01  0.306928E+03  0.297084E+03  0.293749E+03  0.115640E+04  0.573308E+00  0.425538E-05  0.112580E+09  0.153622E+32  0.000000E+00  0.000000E+00  0.000000E+00  0.000000E+00  0.100000E+01  0.306928E+03  0.297084E+03  0.293749E+03
 -0.150000E-03  0.500000E-04  0.201701E+03 -0.416377E+01  0.268163E+24  0.124696E-01  0.310301E+03  0.297571E+03  0.293629E+03  0.114876E+04  0.561758E+00  0.434260E-05  0.109993E+09  0.147481E+32  0.000000E+00  0.000000E+00  0.000000E+00  0.000000E+00  0.100000E+01  0.310301E+03  0.297571E+03  0.293629E+03
 -0.499999E-04  0.500000E-04  0.196558E+03  0.621101E+01  0.273317E+24  0.127092E-01  0.307651E+03  0.301814E+03  0.293796E+03  0.116084E+04  0.549946E+00  0.425159E-05  0.113090E+09  0.154546E+32  0.000000E+00  0.000000E+00  0.000000E+00  0.000000E+00  0.100000E+01  0.307651E+03  0.301814E+03  0.293796E+03
  0.499999E-04  0.500000E-04  0.192740E+03  0.324811E+01  0.273750E+24  0.127294E-01  0.305275E+03  0.292012E+03  0.293939E+03  0.115371E+04  0.541164E+00  0.423664E-05  0.112752E+09  0.154329E+32  0.000000E+00  0.000000E+00  0.000000E+00  0.000000E+00  0.100000E+01  0.305275E+03  0.292012E+03  0.293939E+03
  0.150000E-03  0.500000E-04  0.193474E+03 -0.457282E+00  0.266259E+24  0.123810E-01  0.310898E+03  0.296082E+03  0.293476E+03  0.114280E+04  0.538215E+00  0.437576E-05  0.109988E+09  0.146427E+32  0.000000E+00  0.000000E+00  0.000000E+00  0.000000E+00  0.100000E+01  0.310898E+03  0.296082E+03  0.293476E+03
  0.250000E-03  0.500000E-04  0.191247E+03  0.265327E+01  0.263820E+24  0.122676E-01  0.309033E+03  0.295418E+03  0.294275E+03  0.112554E+04  0.533674E+00  0.440957E-05  0.109205E+09  0.144052E+32  0.000000E+00  0.000000E+00  0.000000E+00  0.000000E+00  0.100000E+01  0.309033E+03  0.295418E+03  0.294275E+03
  0.350000E-03  0.500000E-04  0.186674E+03 -0.217419E+01  0.271016E+24  0.126022E-01  0.308839E+03  0.301636E+03  0.294008E+03  0.115552E+04  0.521060E+00  0.429182E-05  0.112516E+09  0.152467E+32  0.000000E+00  0.000000E+00  0.000000E+00  0.000000E+00  0.100000E+01  0.308839E+03  0.301636E+03  0.294008E+03
  0.450000E-03  0.500000E-04  0.182219E+03  0.140770E+01  0.273229E+24  0.127051E-01  0.309967E+03  0.300416E+03  0.293955E+03  0.116921E+04  0.507680E+00  0.426094E-05  0.113088E+09  0.154495E+32  0.000000E+00  0.000000E+00  0.000000E+00  0.000000E+00  0.100000E+01  0.309967E+03  0.300416E+03  0.293955E+03
  0.550000E-03  0.500000E-04  0.182756E+03  0.365187E+01  0.269850E+24  0.125480E-01  0.312319E+03  0.302434E+03  0.294082E+03  0.116351E+04  0.507342E+00  0.432244E-05  0.112162E+09  0.151335E+32  0.000000E+00  0.000000E+00  0.000000E+00  0.000000E+00  0.100000E+01  0.312319E+03  0.302434E+03  0.294082E+03
  0.650000E-03  0.500000E-04  0.177686E+03  0.199332E+01  0.265804E+24  0.123599E-01  0.313715E+03  0.300344E+03  0.294670E+03  0.115118E+04  0.492102E+00  0.439315E-05  0.110988E+09  0.147504E+32  0.000000E+00  0.000000E+00  0.000000E+00  0.000000E+00  0.100000E+01  0.313715E+03  0.300344E+03  0.294670E+03
  0.750000E-03  0.500000E-04  0.168836E+03  0.154171E+01  0.266769E+24  0.124048E-01  0.312835E+03  0.305074E+03  0.294258E+03  0.115213E+04  0.468237E+00  0.437418E-05  0.111322E+09  0.148486E+32  0.000000E+00  0.000000E+00  0.000000E+00  0.000000E+00  0.100000E+01  0.312835E+03  0.305074E+03  0.294258E+03
  0.850000E-03  0.500000E-04  0.167645E+03  0.641530E+00  0.267284E+24  0.124287E-01  0.311069E+03  0.300102E+03  0.294743E+03  0.114783E+04  0.466236E+00  0.435957E-05  0.110776E+09  0.148043E+32  0.000000E+00  0.000000E+00  0.000000E+00  0.000000E+00  0.100000E+01  0.311069E+03  0.300102E+03  0.294743E+03
  0.950000E-03  0.500000E-04  0.165280E+03  0.157863E+01  0.265284E+24  0.123357E-01  0.309948E+03  0.297737E+03  0.294023E+03  0.113514E+04  0.460508E+00  0.438848E-05  0.109202E+09  0.144847E+32  0.000000E+00  0.000000E+00  0.000000E+00  0.000000E+00  0.100000E+01  0.309948E+03  0.297737E+03  0.294023E+03
  0.105000E-02  0.500000E-04  0.163883E+03 -0.129789E+01  0.262539E+24  0.122081E-01  0.309359E+03  0.299842E+03  0.294669E+03  0.112126E+04  0.457042E+00  0.443226E-05  0.108107E+09  0.141912E+32  0.000000E+00  0.000000E+00  0.000000E+00  0.000000E+00  0.100000E+01  0.309359E+03  0.299842E+03  0.294669E+03
  0.115000E-02  0.500000E-04  0.164897E+03 -0.297537E+00  0.260874E+24  0.121307E-01  0.308149E+03  0.300826E+03  0.294630E+03  0.110979E+04  0.460759E+00  0.445617E-05  0.108077E+09  0.140972E+32  0.000000E+00  0.000000E+00  0.000000E+00  0.000000E+00  0.100000E+01  0.308149E+03  0.300826E+03  0.294630E+03
  0.125000E-02  0.500000E-04  0.161404E+03 -0.267496E+01  0.267087E+24  0.124195E-01  0.310533E+03  0.302978E+03  0.295070E+03  0.114501E+04  0.449325E+00  0.436091E-05  0.110931E+09  0.148141E+32  0.000000E+00  0.000000E+00  0.000000E+00  0.000000E+00  0.100000E+01  0.310533E+03  0.302978E+03  0.295070E+03
  0.135000E-02  0.500000E-04  0.160984E+03  0.663504E+01  0.259135E+24  0.120498E-01  0.306608E+03  0.302449E+03  0.294867E+03  0.109688E+04  0.451338E+00  0.448046E-05  0.107912E+09  0.139819E+32  0.000000E+00  0.000000E+00  0.000000E+00  0.000000E+00  0.100000E+01  0.306608E+03  0.302449E+03  0.294867E+03
  0.145000E-02  0.500000E-04  0.157369E+03  0.217076E+01  0.256738E+24  0.119383E-01  0.309183E+03  0.299373E+03  0.294882E+03  0.109586E+04  0.439030E+00  0.453176E-05  0.106553E+09  0.136781E+32  0.000000E+00  0.000000E+00  0.000000E+00  0.000000E+00  0.100000E+01  0.309183E+03  0.299373E+03  0.294882E+03
  0.155000E-02  0.500000E-04  0.158847E+03 -0.398566E+00  0.252561E+24  0.117441E-01  0.309513E+03  0.300994E+03  0.294692E+03  0.107918E+04  0.442876E+00  0.460793E-05  0.105234E+09  0.132890E+32  0.000000E+00  0.000000E+00  0.000000E+00  0.000000E+00  0.100000E+01  0.309513E+03  0.300994E+03  0.294692E+03
  0.165000E-02  0.500000E-04  0.155530E+03  0.274695E+00  0.255790E+24  0.118942E-01  0.310442E+03  0.302703E+03  0.294986E+03  0.109626E+04  0.432976E+00  0.455317E-05  0.106510E+09  0.136221E+32  0.000000E+00  0.000000E+00  0.000000E+00  0.000000E+00  0.100000E+01  0.310442E+03  0.302703E+03  0.294986E+03
  0.175000E-02  0.500000E-04  0.155047E+03  0.315875E+01  0.251352E+24  0.116879E-01  0.309935E+03  0.302059E+03  0.294870E+03  0.107548E+04  0.432074E+00  0.463167E-05  0.104375E+09  0.131175E+32  0.000000E+00  0.000000E+00  0.000000E+00  0.000000E+00  0.100000E+01  0.309935E+03  0.302059E+03  0.294870E+03
  0.185000E-02  0.500000E-04  0.149719E+03  0.114776E+01  0.258115E+24  0.120023E-01  0.307685E+03  0.297647E+03  0.295530E+03  0.109640E+04  0.418677E+00  0.450211E-05  0.106512E+09  0.137462E+32  0.000000E+00  0.000000E+00  0.000000E+00  0.000000E+00  0.100000E+01  0.307685E+03  0.297647E+03  0.295530E+03
  0.195000E-02  0.500000E-04  0.151635E+03  0.105311E+01  0.255420E+24  0.118770E-01  0.307379E+03  0.302915E+03  0.295273E+03  0.108387E+04  0.424242E+00  0.454848E-05  0.105874E+09  0.135211E+32  0.000000E+00  0.000000E+00  0.000000E+00  0.000000E+00  0.100000E+01  0.307379E+03  0.302915E+03  0.295273E+03
  0.205000E-02  0.500000E-04  0.154269E+03 -0.738596E+00  0.254700E+24  0.118435E-01  0.311387E+03  0.305306E+03  0.295131E+03  0.109491E+04  0.428820E+00  0.457614E-05  0.105848E+09  0.134797E+32  0.000000E+00  0.000000E+00  0.000000E+00  0.000000E+00  0.100000E+01  0.311387E+03  0.305306E+03  0.295131E+03
  0.215000E-02  0.500000E-04  0.151879E+03  0.171448E+00  0.251396E+24  0.116899E-01  0.308106E+03  0.300282E+03  0.295569E+03  0.106932E+04  0.424414E+00  0.462401E-05  0.104150E+09  0.130915E+32  0.000000E+00  0.000000E+00  0.000000E+00  0.000000E+00  0.100000E+01  0.308106E+03  0.300282E+03  0.295569E+03
  0.225000E-02  0.500000E-04  0.149198E+03  0.281663E+01  0.248167E+24  0.115397E-01  0.307106E+03  0.298414E+03  0.295477E+03  0.105216E+04  0.417673E+00  0.468038E-05  0.102836E+09  0.127602E+32  0.000000E+00  0.000000E+00  0.000000E+00  0.000000E+00  0.100000E+01  0.307106E+03  0.298414E+03  0.295477E+03
  0.235000E-02  0.500000E-04  0.146941E+03 -0.111767E+01  0.247857E+24  0.115253E-01  0.304937E+03  0.300756E+03  0.296077E+03  0.104342E+04  0.412753E+00  0.467795E-05  0.101808E+09  0.126169E+32  0.000000E+00  0.000000E+00  0.000000E+00  0.000000E+00  0.100000E+01  0.304937E+03  0.300756E+03  0.296077E+03
  0.245000E-02  0.500000E-04  0.145777E+03  0.158935E+01  0.250954E+24  0.116694E-01  0.309241E+03  0.299966E+03  0.295051E+03  0.107137E+04  0.406637E+00  0.463642E-05  0.104624E+09  0.131279E+32  0.000000E+00  0.000000E+00  0.000000E+00  0.000000E+00  0.100000E+01  0.309241E+03  0.299966E+03  0.295051E+03
  0.255000E-02  0.500000E-04  0.145171E+03 -0.632415E+00  0.250947E+24  0.116690E-01  0.308215E+03  0.299778E+03  0.294760E+03  0.106779E+04  0.405599E+00  0.463270E-05  0.104637E+09  0.131291E+32  0.000000E+00  0.000000E+00  0.000000E+00  0.000000E+00  0.100000E+01  0.308215E+03  0.299778E+03  0.294760E+03
  0.265000E-02  0.500000E-04  0.146438E+03  0.739963E+00  0.244845E+24  0.113853E-01  0.309942E+03  0.304978E+03  0.295403E+03  0.104766E+04  0.407999E+00  0.475479E-05  0.101827E+09  0.124659E+32  0.000000E+00  0.000000E+00  0.000000E+00  0.000000E+00  0.100000E+01  0.309942E+03  0.304978E+03  0.295403E+03
  0.275000E-02  0.500000E-04  0.144330E+03 -0.185988E+01  0.252351E+24  0.117343E-01  0.308835E+03  0.302824E+03  0.295492E+03  0.107592E+04  0.402876E+00  0.460925E-05  0.105035E+09  0.132529E+32  0.000000E+00  0.000000E+00  0.000000E+00  0.000000E+00  0.100000E+01  0.308835E+03  0.302824E+03  0.295492E+03
  0.285000E-02  0.500000E-04  0.145028E+03 -0.509371E-01  0.251634E+24  0.117010E-01  0.306358E+03  0.298609E+03  0.295249E+03  0.106426E+04  0.406423E+00  0.461307E-05  0.104091E+09  0.130965E+32  0.000000E+00  0.000000E+00  0.000000E+00  0.000000E+00  0.100000E+01  0.306358E+03  0.298608E+03  0.295249E+03
  0.295000E-02  0.500000E-04  0.136367E+03  0.119673E+01  0.260617E+24  0.121187E-01  0.306080E+03  0.297287E+03  0.296365E+03  0.110125E+04  0.382341E+00  0.445306E-05  0.108192E+09  0.140983E+32  0.000000E+00  0.000000E+00  0.000000E+00  0.000000E+00  0.100000E+01  0.306080E+03  0.297287E+03  0.296365E+03
  0.305000E-02  0.500000E-04  0.137434E+03  0.207601E+01  0.251142E+24  0.116781E-01  0.306198E+03  0.298410E+03  0.295951E+03  0.106162E+04  0.385287E+00  0.462152E-05  0.104088E+09  0.130705E+32  0.000000E+00  0.000000E+00  0.000000E+00  0.000000E+00  0.100000E+01  0.306198E+03  0.298410E+03  0.295951E+03
  0.315000E-02  0.500000E-04  0.136207E+03  0.397429E+00  0.249499E+24  0.116017E-01  0.309624E+03  0.303360E+03  0.295827E+03  0.106648E+04  0.379686E+00  0.466491E-05  0.104121E+09  0.129890E+32  0.000000E+00  0.000000E+00  0.000000E+00  0.000000E+00  0.100000E+01  0.309624E+03  0.303360E+03  0.295827E+03
  0.325000E-02  0.500000E-04  0.135178E+03 -0.180529E+01  0.250138E+24  0.116314E-01  0.304760E+03  0.300113E+03  0.295714E+03  0.105242E+04  0.379845E+00  0.463461E-05  0.103761E+09  0.129772E+32  0.000000E+00  0.000000E+00  0.000000E+00  0.000000E+00  0.100000E+01  0.304760E+03  0.300113E+03  0.295714E+03
  0.335000E-02  0.500000E-04  0.129341E+03  0.469445E+01  0.251007E+24  0.116718E-01  0.304994E+03  0.301434E+03  0.295638E+03  0.105688E+04  0.363511E+00  0.461946E-05  0.104193E+09  0.130766E+32  0.000000E+00  0.000000E+00  0.000000E+00  0.000000E+00  0.100000E+01  0.304994E+03  0.301434E+03  0.295638E+03
  0.345000E-02  0.500000E-04  0.127997E+03  0.188204E+00  0.248075E+24  0.115355E-01  0.307627E+03  0.301079E+03  0.295496E+03  0.105355E+04  0.357955E+00  0.468410E-05  0.102882E+09  0.127612E+32  0.000000E+00  0.000000E+00  0.000000E+00  0.000000E+00  0.100000E+01  0.307627E+03  0.301079E+03  0.295496E+03
  0.355000E-02  0.500000E-04  0.128476E+03 -0.132569E+01  0.248893E+24  0.115735E-01  0.306732E+03  0.302616E+03  0.295834E+03  0.105395E+04  0.359839E+00  0.466531E-05  0.103003E+09  0.128183E+32  0.000000E+00  0.000000E+00  0.000000E+00  0.000000E+00  0.100000E+01  0.306732E+03  0.302616E+03  0.295834E+03
  0.365000E-02  0.500000E-04  0.125565E+03  0.229426E+01  0.246225E+24  0.114495E-01  0.309948E+03  0.302339E+03  0.296888E+03  0.105359E+04  0.349896E+00  0.472817E-05  0.102328E+09  0.125978E+32  0.000000E+00  0.000000E+00  0.000000E+00  0.000000E+00  0.100000E+01  0.309948E+03  0.302339E+03  0.296888E+03
  0.375000E-02  0.500000E-04  0.124256E+03  0.287200E+01  0.245251E+24  0.114042E-01  0.309114E+03  0.301748E+03  0.296373E+03  0.104659E+04  0.346748E+00  0.474375E-05  0.101749E+09  0.124770E+32  0.000000E+00  0.000000E+00  0.000000E+00  0.000000E+00  0.100000E+01  0.309114E+03  0.301748E+03  0.296373E+03
  0.385000E-02  0.500000E-04  0.125681E+03 -0.358969E+01  0.243356E+24  0.113161E-01  0.305337E+03  0.298205E+03  0.296537E+03  0.102582E+04  0.352937E+00  0.476601E-05  0.996485E+08  0.121250E+32  0.000000E+00  0.000000E+00  0.000000E+00  0.000000E+00  0.100000E+01  0.305337E+03  0.298205E+03  0.296537E+03
  0.395000E-02  0.500000E-04  0.129337E+03 -0.106708E+01  0.241637E+24  0.112361E-01  0.308372E+03  0.299719E+03  0.295975E+03  0.102870E+04  0.361277E+00  0.481180E-05  0.998951E+08  0.120692E+32  0.000000E+00  0.000000E+00  0.000000E+00  0.000000E+00  0.100000E+01  0.308372E+03  0.299719E+03  0.295975E+03
  0.405000E-02  0.500000E-04  0.129809E+03  0.872419E+00  0.239786E+24  0.111501E-01  0.314496E+03  0.309445E+03  0.296052E+03  0.104109E+04  0.359045E+00  0.487284E-05  0.997168E+08  0.119554E+32  0.000000E+00  0.000000E+00  0.000000E+00  0.000000E+00  0.100000E+01  0.314496E+03  0.309445E+03  0.296052E+03
  0.415000E-02  0.500000E-04  0.127289E+03 -0.695565E+00  0.244877E+24  0.113868E-01  0.305543E+03  0.300834E+03  0.296024E+03  0.103293E+04  0.357193E+00  0.473722E-05  0.100535E+09  0.123093E+32  0.000000E+00  0.000000E+00  0.000000E+00  0.000000E+00  0.100000E+01  0.305543E+03  0.300834E+03  0.296024E+03
  0.425000E-02  0.500000E-04  0.124989E+03  0.297849E+01  0.244139E+24  0.113525E-01  0.307403E+03  0.300987E+03  0.295937E+03  0.103608E+04  0.349769E+00  0.475875E-05  0.100924E+09  0.123198E+32  0.000000E+00  0.000000E+00  0.000000E+00  0.000000E+00  0.100000E+01  0.307403E+03  0.300987E+03  0.295937E+03
  0.435000E-02  0.500000E-04  0.126043E+03 -0.593173E+00  0.245069E+24  0.113957E-01  0.307615E+03  0.303561E+03  0.295996E+03  0.104075E+04  0.352502E+00  0.474150E-05  0.101599E+09  0.124494E+32  0.000000E+00  0.000000E+00  0.000000E+00  0.000000E+00  0.100000E+01  0.307615E+03  0.303561E+03  0.295996E+03
  0.445000E-02  0.500000E-04  0.130779E+03 -0.251877E+01  0.242969E+24  0.112981E-01  0.307210E+03  0.301647E+03  0.295577E+03  0.103047E+04  0.366052E+00  0.478091E-05  0.100428E+09  0.122005E+32  0.000000E+00  0.000000E+00  0.000000E+00  0.000000E+00  0.100000E+01  0.307210E+03  0.301647E+03  0.295577E+03
  0.455000E-02  0.500000E-04  0.129310E+03 -0.643616E+00  0.243218E+24  0.113097E-01  0.310047E+03  0.308647E+03  0.296042E+03  0.104105E+04  0.360217E+00  0.478700E-05  0.101092E+09  0.122937E+32  0.000000E+00  0.000000E+00  0.000000E+00  0.000000E+00  0.100000E+01  0.310047E+03  0.308647E+03  0.296042E+03
  0.465000E-02  0.500000E-04  0.128893E+03  0.381085E+01  0.239469E+24  0.111353E-01  0.310131E+03  0.304848E+03  0.296155E+03  0.102528E+04  0.359161E+00  0.486227E-05  0.991485E+08  0.118715E+32  0.000000E+00  0.000000E+00  0.000000E+00  0.000000E+00  0.100000E+01  0.310131E+03  0.304848E+03  0.296155E+03
  0.475000E-02  0.500000E-04  0.124107E+03 -0.112064E+01  0.241465E+24  0.112281E-01  0.305715E+03  0.302877E+03  0.295974E+03  0.101911E+04  0.348175E+00  0.480483E-05  0.997171E+08  0.120391E+32  0.000000E+00  0.000000E+00  0.000000E+00  0.000000E+00  0.100000E+01  0.305715E+03  0.302877E+03  0.295974E+03
  0.485000E-02  0.500000E-04  0.125415E+03  0.255633E+01  0.242322E+24  0.112680E-01  0.304776E+03  0.298204E+03  0.296740E+03  0.101958E+04  0.352445E+00  0.478416E-05  0.999804E+08  0.121137E+32  0.000000E+00  0.000000E+00  0.000000E+00  0.000000E+00  0.100000E+01  0.304776E+03  0.298204E+03  0.296740E+03
  0.495000E-02  0.500000E-04  0.128348E+03 -0.949963E+00  0.239430E+24  0.111335E-01  0.309147E+03  0.302882E+03  0.296402E+03  0.102186E+04  0.358063E+00  0.485921E-05  0.994664E+08  0.119076E+32  0.000000E+00  0.000000E+00  0.000000E+00  0.000000E+00  0.100000E+01  0.309147E+03  0.302882E+03  0.296402E+03
  0.505000E-02  0.500000E-04  0.128675E+03 -0.301354E+01  0.240904E+24  0.112020E-01  0.306258E+03  0.301376E+03  0.296127E+03  0.101855E+04  0.360752E+00  0.481815E-05  0.100133E+09  0.120612E+32  0.000000E+00  0.000000E+00  0.000000E+00  0.000000E+00  0.100000E+01  0.306258E+03  0.301376E+03  0.296127E+03
  0.515000E-02  0.500000E-04  0.123731E+03  0.240737E+01  0.242568E+24  0.112794E-01  0.303497E+03  0.296896E+03  0.295411E+03  0.101633E+04  0.348436E+00  0.477428E-05  0.100591E+09  0.122001E+32  0.000000E+00  0.000000E+00  0.000000E+00  0.000000E+00  0.100000E+01  0.303497E+03  0.296896E+03  0.295411E+03
  0.525000E-02  0.500000E-04  0.119188E+03 -0.986537E+00  0.244648E+24  0.113762E-01  0.307536E+03  0.305131E+03  0.296137E+03  0.103869E+04  0.333380E+00  0.474935E-05  0.101436E+09  0.124081E+32  0.000000E+00  0.000000E+00  0.000000E+00  0.000000E+00  0.100000E+01  0.307536E+03  0.305131E+03  0.296137E+03
  0.535000E-02  0.500000E-04  0.118426E+03 -0.176706E+00  0.243602E+24  0.113275E-01  0.302976E+03  0.297591E+03  0.295857E+03  0.101891E+04  0.333721E+00  0.475197E-05  0.101032E+09  0.123058E+32  0.000000E+00  0.000000E+00  0.000000E+00  0.000000E+00  0.100000E+01  0.302976E+03  0.297591E+03  0.295857E+03
  0.545000E-02  0.500000E-04  0.119785E+03 -0.162975E+01  0.241540E+24  0.112316E-01  0.308485E+03  0.302607E+03  0.296007E+03  0.102866E+04  0.334554E+00  0.481418E-05  0.100643E+09  0.121546E+32  0.000000E+00  0.000000E+00  0.000000E+00  0.000000E+00  0.100000E+01  0.308485E+03  0.302607E+03  0.296007E+03