TITLE=" Box                                                                     /                                                                         "
VARIABLES="X",        "Y",      "Vx   ",      "Vy   ",      "Nden ",      "Rho  ",      "Ttrn ",      "Trot ",      "Tvib ",      "Press",      "Ma   ",      "Lambd",      "Relac",      "Coll ",      "frac1",      "Ttrn1",      "Trot1",      "Tvib1",      "frac2",      "Ttrn2",      "Trot2",      "Tvib2"
ZONE T="DSMC,BG", I=  200, J=   50, F=POINT
 -0.395000E-02  0.500000E-04  0.802500E+03  0.244579E+02  0.129514E+25  0.602239E-01  0.999620E+02  0.838467E+02  0.233511E+03  0.178731E+04  0.393883E+01  0.677401E-06  0.385309E+09  0.249514E+33  0.000000E+00  0.000000E+00  0.000000E+00  0.000000E+00  0.100000E+01  0.999620E+02  0.838467E+02  0.233511E+03
 -0.385000E-02  0.500000E-04  0.741299E+03  0.672113E+02  0.139891E+25  0.650492E-01  0.144666E+03  0.116061E+03  0.245632E+03  0.279385E+04  0.303547E+01  0.687868E-06  0.480136E+09  0.335833E+33  0.000000E+00  0.000000E+00  0.000000E+00  0.000000E+00  0.100000E+01  0.144666E+03  0.116061E+03  0.245632E+03
 -0.375000E-02  0.500000E-04  0.715064E+03  0.889313E+02  0.139175E+25  0.647165E-01  0.158773E+03  0.129847E+03  0.250019E+03  0.305062E+04  0.280497E+01  0.707676E-06  0.532615E+09  0.370634E+33  0.000000E+00  0.000000E+00  0.000000E+00  0.000000E+00  0.100000E+01  0.158773E+03  0.129847E+03  0.250019E+03
 -0.365000E-02  0.500000E-04  0.676821E+03  0.740397E+02  0.112572E+25  0.523461E-01  0.184188E+03  0.148058E+03  0.256852E+03  0.286248E+04  0.246074E+01  0.908002E-06  0.462942E+09  0.260573E+33  0.000000E+00  0.000000E+00  0.000000E+00  0.000000E+00  0.100000E+01  0.184188E+03  0.148058E+03  0.256852E+03
 -0.355000E-02  0.500000E-04  0.629464E+03  0.534873E+02  0.873411E+24  0.406136E-01  0.212599E+03  0.170522E+03  0.264208E+03  0.256347E+04  0.212516E+01  0.121304E-05  0.358393E+09  0.156512E+33  0.000000E+00  0.000000E+00  0.000000E+00  0.000000E+00  0.100000E+01  0.212599E+03  0.170522E+03  0.264208E+03
 -0.345000E-02  0.500000E-04  0.581739E+03  0.407212E+02  0.724331E+24  0.336814E-01  0.236412E+03  0.189932E+03  0.269606E+03  0.236405E+04  0.186034E+01  0.150205E-05  0.299679E+09  0.108533E+33  0.000000E+00  0.000000E+00  0.000000E+00  0.000000E+00  0.100000E+01  0.236412E+03  0.189932E+03  0.269606E+03
 -0.335000E-02  0.500000E-04  0.540301E+03  0.312836E+02  0.620375E+24  0.288474E-01  0.252925E+03  0.207375E+03  0.273969E+03  0.216618E+04  0.166919E+01  0.178360E-05  0.255238E+09  0.791715E+32  0.000000E+00  0.000000E+00  0.000000E+00  0.000000E+00  0.100000E+01  0.252925E+03  0.207375E+03  0.273969E+03
 -0.325000E-02  0.500000E-04  0.507144E+03  0.226215E+02  0.548269E+24  0.254945E-01  0.266717E+03  0.221883E+03  0.277228E+03  0.201880E+04  0.152467E+01  0.204513E-05  0.224697E+09  0.615974E+32  0.000000E+00  0.000000E+00  0.000000E+00  0.000000E+00  0.100000E+01  0.266717E+03  0.221883E+03  0.277228E+03
 -0.315000E-02  0.500000E-04  0.467707E+03  0.188494E+02  0.510769E+24  0.237508E-01  0.277659E+03  0.233708E+03  0.279760E+03  0.195788E+04  0.137788E+01  0.221746E-05  0.207840E+09  0.530791E+32  0.000000E+00  0.000000E+00  0.000000E+00  0.000000E+00  0.100000E+01  0.277659E+03  0.233708E+03  0.279760E+03
 -0.305000E-02  0.500000E-04  0.445561E+03  0.140810E+02  0.464683E+24  0.216078E-01  0.283204E+03  0.242460E+03  0.281827E+03  0.181679E+04  0.129931E+01  0.244946E-05  0.189136E+09  0.439442E+32  0.000000E+00  0.000000E+00  0.000000E+00  0.000000E+00  0.100000E+01  0.283204E+03  0.242460E+03  0.281827E+03
 -0.295000E-02  0.500000E-04  0.416852E+03  0.133056E+02  0.440220E+24  0.204702E-01  0.288228E+03  0.251015E+03  0.283620E+03  0.175168E+04  0.120497E+01  0.259697E-05  0.178563E+09  0.393035E+32  0.000000E+00  0.000000E+00  0.000000E+00  0.000000E+00  0.100000E+01  0.288228E+03  0.251015E+03  0.283620E+03
 -0.285000E-02  0.500000E-04  0.391766E+03  0.114540E+02  0.421518E+24  0.196006E-01  0.293864E+03  0.259637E+03  0.285035E+03  0.171006E+04  0.112145E+01  0.272535E-05  0.171153E+09  0.360722E+32  0.000000E+00  0.000000E+00  0.000000E+00  0.000000E+00  0.100000E+01  0.293864E+03  0.259637E+03  0.285035E+03
 -0.275000E-02  0.500000E-04  0.370124E+03  0.941377E+01  0.404833E+24  0.188247E-01  0.299221E+03  0.265760E+03  0.286421E+03  0.167231E+04  0.104986E+01  0.285053E-05  0.164427E+09  0.332827E+32  0.000000E+00  0.000000E+00  0.000000E+00  0.000000E+00  0.100000E+01  0.299221E+03  0.265760E+03  0.286421E+03
 -0.265000E-02  0.500000E-04  0.351633E+03  0.675977E+01  0.391200E+24  0.181908E-01  0.302047E+03  0.268290E+03  0.287243E+03  0.163126E+04  0.992598E+00  0.295680E-05  0.159411E+09  0.311809E+32  0.000000E+00  0.000000E+00  0.000000E+00  0.000000E+00  0.100000E+01  0.302047E+03  0.268290E+03  0.287243E+03
 -0.255000E-02  0.500000E-04  0.340287E+03  0.853982E+01  0.371758E+24  0.172867E-01  0.302825E+03  0.273388E+03  0.287936E+03  0.155418E+04  0.959458E+00  0.311344E-05  0.151839E+09  0.282237E+32  0.000000E+00  0.000000E+00  0.000000E+00  0.000000E+00  0.100000E+01  0.302825E+03  0.273388E+03  0.287936E+03
 -0.245000E-02  0.500000E-04  0.328429E+03  0.568657E+01  0.356901E+24  0.165959E-01  0.303874E+03  0.277434E+03  0.288425E+03  0.149724E+04  0.924272E+00  0.324585E-05  0.146047E+09  0.260622E+32  0.000000E+00  0.000000E+00  0.000000E+00  0.000000E+00  0.100000E+01  0.303874E+03  0.277434E+03  0.288425E+03
 -0.235000E-02  0.500000E-04  0.320370E+03  0.424263E+01  0.345936E+24  0.160860E-01  0.304932E+03  0.277865E+03  0.288402E+03  0.145629E+04  0.899973E+00  0.335165E-05  0.141526E+09  0.244794E+32  0.000000E+00  0.000000E+00  0.000000E+00  0.000000E+00  0.100000E+01  0.304932E+03  0.277865E+03  0.288402E+03
 -0.225000E-02  0.500000E-04  0.307753E+03  0.519930E+01  0.344893E+24  0.160375E-01  0.303935E+03  0.276561E+03  0.289128E+03  0.144715E+04  0.865991E+00  0.335903E-05  0.141028E+09  0.243198E+32  0.000000E+00  0.000000E+00  0.000000E+00  0.000000E+00  0.100000E+01  0.303935E+03  0.276561E+03  0.289128E+03
 -0.215000E-02  0.500000E-04  0.296694E+03  0.642762E+01  0.340347E+24  0.158261E-01  0.304803E+03  0.279932E+03  0.289275E+03  0.143215E+04  0.833761E+00  0.340632E-05  0.139032E+09  0.236596E+32  0.000000E+00  0.000000E+00  0.000000E+00  0.000000E+00  0.100000E+01  0.304803E+03  0.279932E+03  0.289275E+03
 -0.205000E-02  0.500000E-04  0.283259E+03  0.701570E+01  0.334855E+24  0.155707E-01  0.308148E+03  0.283798E+03  0.290083E+03  0.142451E+04  0.791729E+00  0.347165E-05  0.136872E+09  0.229162E+32  0.000000E+00  0.000000E+00  0.000000E+00  0.000000E+00  0.100000E+01  0.308148E+03  0.283798E+03  0.290083E+03
 -0.195000E-02  0.500000E-04  0.273227E+03  0.213010E+01  0.325573E+24  0.151391E-01  0.307186E+03  0.283705E+03  0.290561E+03  0.138070E+04  0.764673E+00  0.356784E-05  0.133172E+09  0.216786E+32  0.000000E+00  0.000000E+00  0.000000E+00  0.000000E+00  0.100000E+01  0.307186E+03  0.283705E+03  0.290561E+03
 -0.185000E-02  0.500000E-04  0.271579E+03  0.744216E+00  0.319971E+24  0.148786E-01  0.308832E+03  0.287729E+03  0.290809E+03  0.136421E+04  0.758013E+00  0.363516E-05  0.130860E+09  0.209358E+32  0.000000E+00  0.000000E+00  0.000000E+00  0.000000E+00  0.100000E+01  0.308832E+03  0.287729E+03  0.290809E+03
 -0.175000E-02  0.500000E-04  0.263171E+03  0.285577E+01  0.318671E+24  0.148182E-01  0.307430E+03  0.287998E+03  0.290950E+03  0.135250E+04  0.736259E+00  0.364584E-05  0.130773E+09  0.208368E+32  0.000000E+00  0.000000E+00  0.000000E+00  0.000000E+00  0.100000E+01  0.307430E+03  0.287998E+03  0.290950E+03
 -0.165000E-02  0.500000E-04  0.258158E+03  0.347741E+01  0.313998E+24  0.146009E-01  0.307026E+03  0.288561E+03  0.291038E+03  0.133092E+04  0.722732E+00  0.369887E-05  0.128851E+09  0.202295E+32  0.000000E+00  0.000000E+00  0.000000E+00  0.000000E+00  0.100000E+01  0.307026E+03  0.288561E+03  0.291038E+03
 -0.155000E-02  0.500000E-04  0.249584E+03  0.553904E+01  0.311947E+24  0.145056E-01  0.310466E+03  0.292835E+03  0.290964E+03  0.133704E+04  0.694957E+00  0.373358E-05  0.128157E+09  0.199891E+32  0.000000E+00  0.000000E+00  0.000000E+00  0.000000E+00  0.100000E+01  0.310466E+03  0.292835E+03  0.290964E+03
 -0.145000E-02  0.500000E-04  0.243961E+03  0.200262E+01  0.307005E+24  0.142758E-01  0.311161E+03  0.292831E+03  0.291115E+03  0.131881E+04  0.678394E+00  0.379580E-05  0.126956E+09  0.194882E+32  0.000000E+00  0.000000E+00  0.000000E+00  0.000000E+00  0.100000E+01  0.311161E+03  0.292831E+03  0.291115E+03
 -0.135000E-02  0.500000E-04  0.240336E+03  0.139940E+01  0.300602E+24  0.139780E-01  0.309839E+03  0.290971E+03  0.291265E+03  0.128581E+04  0.669728E+00  0.387253E-05  0.124190E+09  0.186659E+32  0.000000E+00  0.000000E+00  0.000000E+00  0.000000E+00  0.100000E+01  0.309839E+03  0.290971E+03  0.291265E+03
 -0.125000E-02  0.500000E-04  0.236138E+03  0.104086E+01  0.297275E+24  0.138233E-01  0.307337E+03  0.292726E+03  0.291612E+03  0.126131E+04  0.660698E+00  0.390795E-05  0.122467E+09  0.182031E+32  0.000000E+00  0.000000E+00  0.000000E+00  0.000000E+00  0.100000E+01  0.307337E+03  0.292726E+03  0.291612E+03
 -0.115000E-02  0.500000E-04  0.232907E+03  0.142262E+01  0.293264E+24  0.136368E-01  0.309034E+03  0.293682E+03  0.292180E+03  0.125116E+04  0.649871E+00  0.396685E-05  0.120692E+09  0.176973E+32  0.000000E+00  0.000000E+00  0.000000E+00  0.000000E+00  0.100000E+01  0.309034E+03  0.293682E+03  0.292180E+03
 -0.105000E-02  0.500000E-04  0.231487E+03  0.417601E+01  0.285108E+24  0.132575E-01  0.312400E+03  0.298943E+03  0.291913E+03  0.122961E+04  0.642514E+00  0.409140E-05  0.117727E+09  0.167824E+32  0.000000E+00  0.000000E+00  0.000000E+00  0.000000E+00  0.100000E+01  0.312400E+03  0.298943E+03  0.291913E+03
 -0.950000E-03  0.500000E-04  0.225639E+03  0.276581E+01  0.285325E+24  0.132676E-01  0.313424E+03  0.301838E+03  0.291882E+03  0.123458E+04  0.625202E+00  0.409164E-05  0.118814E+09  0.169503E+32  0.000000E+00  0.000000E+00  0.000000E+00  0.000000E+00  0.100000E+01  0.313424E+03  0.301838E+03  0.291882E+03
 -0.850000E-03  0.500000E-04  0.225682E+03 -0.113988E+01  0.285945E+24  0.132964E-01  0.309519E+03  0.295222E+03  0.292058E+03  0.122185E+04  0.629216E+00  0.406998E-05  0.117481E+09  0.167965E+32  0.000000E+00  0.000000E+00  0.000000E+00  0.000000E+00  0.100000E+01  0.309519E+03  0.295222E+03  0.292058E+03
 -0.750000E-03  0.500000E-04  0.224273E+03  0.308247E+01  0.287719E+24  0.133789E-01  0.309885E+03  0.297455E+03  0.291616E+03  0.123089E+04  0.624967E+00  0.404608E-05  0.118495E+09  0.170466E+32  0.000000E+00  0.000000E+00  0.000000E+00  0.000000E+00  0.100000E+01  0.309885E+03  0.297455E+03  0.291616E+03
 -0.650000E-03  0.500000E-04  0.213862E+03  0.276857E+01  0.289407E+24  0.134574E-01  0.305561E+03  0.292921E+03  0.292215E+03  0.122083E+04  0.600153E+00  0.400838E-05  0.118785E+09  0.171885E+32  0.000000E+00  0.000000E+00  0.000000E+00  0.000000E+00  0.100000E+01  0.305561E+03  0.292921E+03  0.292215E+03
 -0.550000E-03  0.500000E-04  0.211128E+03  0.459561E+01  0.278958E+24  0.129716E-01  0.311404E+03  0.299149E+03  0.292673E+03  0.119926E+04  0.586985E+00  0.417826E-05  0.115136E+09  0.160590E+32  0.000000E+00  0.000000E+00  0.000000E+00  0.000000E+00  0.100000E+01  0.311404E+03  0.299149E+03  0.292673E+03
 -0.450000E-03  0.500000E-04  0.196561E+03  0.421036E+01  0.285931E+24  0.132958E-01  0.310425E+03  0.297829E+03  0.293699E+03  0.122537E+04  0.547344E+00  0.407316E-05  0.119141E+09  0.170330E+32  0.000000E+00  0.000000E+00  0.000000E+00  0.000000E+00  0.100000E+01  0.310425E+03  0.297829E+03  0.293699E+03
 -0.350000E-03  0.500000E-04  0.183135E+03  0.421515E+01  0.291629E+24  0.135607E-01  0.310353E+03  0.297731E+03  0.293900E+03  0.124950E+04  0.510033E+00  0.399334E-05  0.121013E+09  0.176455E+32  0.000000E+00  0.000000E+00  0.000000E+00  0.000000E+00  0.100000E+01  0.310353E+03  0.297731E+03  0.293900E+03
 -0.250000E-03  0.500000E-04  0.168885E+03  0.314609E+01  0.298664E+24  0.138879E-01  0.310364E+03  0.300358E+03  0.294030E+03  0.127968E+04  0.470297E+00  0.389931E-05  0.123691E+09  0.184711E+32  0.000000E+00  0.000000E+00  0.000000E+00  0.000000E+00  0.100000E+01  0.310364E+03  0.300358E+03  0.294030E+03
 -0.150000E-03  0.500000E-04  0.154243E+03  0.602250E+01  0.305404E+24  0.142013E-01  0.310062E+03  0.300645E+03  0.294775E+03  0.130729E+04  0.429985E+00  0.381231E-05  0.127276E+09  0.194352E+32  0.818256E-03  0.400929E+03  0.313714E+03  0.289569E+03  0.999182E+00  0.309988E+03  0.300634E+03  0.294778E+03
 -0.499999E-04  0.500000E-04  0.140792E+03  0.444169E+01  0.309594E+24  0.143961E-01  0.309522E+03  0.298594E+03  0.295035E+03  0.132292E+04  0.392725E+00  0.375907E-05  0.128313E+09  0.198625E+32  0.175432E-01  0.330100E+03  0.321707E+03  0.290444E+03  0.982457E+00  0.309154E+03  0.298181E+03  0.295105E+03
  0.499999E-04  0.500000E-04  0.135385E+03  0.452125E+01  0.323212E+24  0.150294E-01  0.307057E+03  0.296448E+03  0.293327E+03  0.137011E+04  0.379178E+00  0.359344E-05  0.136749E+09  0.220996E+32  0.169437E+00  0.296981E+03  0.283942E+03  0.286003E+03  0.830563E+00  0.309113E+03  0.299000E+03  0.294423E+03
  0.150000E-03  0.500000E-04  0.137962E+03  0.173742E+01  0.342705E+24  0.159358E-01  0.298319E+03  0.292786E+03  0.291516E+03  0.141140E+04  0.391827E+00  0.336461E-05  0.145212E+09  0.248825E+32  0.310733E+00  0.288779E+03  0.282066E+03  0.286029E+03  0.689267E+00  0.302620E+03  0.297618E+03  0.293399E+03
  0.250000E-03  0.500000E-04  0.141354E+03  0.461330E+01  0.351830E+24  0.163601E-01  0.299638E+03  0.293469E+03  0.291577E+03  0.145539E+04  0.400759E+00  0.328105E-05  0.148643E+09  0.261486E+32  0.408318E+00  0.295162E+03  0.286225E+03  0.288083E+03  0.591682E+00  0.302726E+03  0.298467E+03  0.293551E+03
  0.350000E-03  0.500000E-04  0.139438E+03  0.488201E+01  0.367695E+24  0.170978E-01  0.293023E+03  0.286580E+03  0.291441E+03  0.148744E+04  0.399795E+00  0.312204E-05  0.155839E+09  0.286507E+32  0.485014E+00  0.290642E+03  0.284983E+03  0.289390E+03  0.514986E+00  0.295265E+03  0.288083E+03  0.293126E+03
  0.450000E-03  0.500000E-04  0.139752E+03  0.625852E+01  0.364650E+24  0.169562E-01  0.292829E+03  0.285634E+03  0.292061E+03  0.147414E+04  0.400982E+00  0.314760E-05  0.153541E+09  0.279944E+32  0.565751E+00  0.292559E+03  0.284465E+03  0.291174E+03  0.434249E+00  0.293180E+03  0.287157E+03  0.293139E+03
  0.550000E-03  0.500000E-04  0.136833E+03  0.295105E+01  0.365449E+24  0.169934E-01  0.293447E+03  0.287416E+03  0.292397E+03  0.148049E+04  0.391893E+00  0.314237E-05  0.153296E+09  0.280110E+32  0.609598E+00  0.292875E+03  0.287656E+03  0.291400E+03  0.390402E+00  0.294341E+03  0.287042E+03  0.293823E+03
  0.650000E-03  0.500000E-04  0.140975E+03  0.472433E+01  0.360757E+24  0.167752E-01  0.297157E+03  0.291330E+03  0.292696E+03  0.147996E+04  0.401359E+00  0.319326E-05  0.152061E+09  0.274286E+32  0.631506E+00  0.297655E+03  0.290827E+03  0.291825E+03  0.368494E+00  0.296302E+03  0.292193E+03  0.294074E+03
  0.750000E-03  0.500000E-04  0.142188E+03  0.370166E+01  0.355108E+24  0.165125E-01  0.297625E+03  0.293812E+03  0.292425E+03  0.145908E+04  0.404405E+00  0.324534E-05  0.150059E+09  0.266435E+32  0.621969E+00  0.297213E+03  0.294154E+03  0.291431E+03  0.378031E+00  0.298303E+03  0.293249E+03  0.293921E+03
  0.850000E-03  0.500000E-04  0.146795E+03  0.247266E+01  0.353556E+24  0.164404E-01  0.298106E+03  0.287971E+03  0.292261E+03  0.145505E+04  0.417087E+00  0.326090E-05  0.148243E+09  0.262062E+32  0.612484E+00  0.297408E+03  0.287011E+03  0.290646E+03  0.387516E+00  0.299210E+03  0.289488E+03  0.294482E+03
  0.950000E-03  0.500000E-04  0.152061E+03  0.236836E+01  0.349580E+24  0.162555E-01  0.298096E+03  0.287953E+03  0.291444E+03  0.143864E+04  0.432049E+00  0.329796E-05  0.145921E+09  0.255056E+32  0.583401E+00  0.297185E+03  0.288083E+03  0.289322E+03  0.416599E+00  0.299371E+03  0.287771E+03  0.293953E+03
  0.105000E-02  0.500000E-04  0.154594E+03  0.175453E+01  0.352417E+24  0.163874E-01  0.294312E+03  0.287913E+03  0.292046E+03  0.143190E+04  0.442035E+00  0.326098E-05  0.145995E+09  0.257255E+32  0.574749E+00  0.293588E+03  0.286958E+03  0.289623E+03  0.425251E+00  0.295290E+03  0.289204E+03  0.294764E+03
  0.115000E-02  0.500000E-04  0.159609E+03  0.357389E+01  0.338709E+24  0.157500E-01  0.296907E+03  0.289018E+03  0.293452E+03  0.138834E+04  0.454460E+00  0.340039E-05  0.141315E+09  0.239323E+32  0.553040E+00  0.294864E+03  0.288177E+03  0.290941E+03  0.446960E+00  0.299436E+03  0.290058E+03  0.296038E+03
  0.125000E-02  0.500000E-04  0.163524E+03  0.640668E+00  0.332388E+24  0.154560E-01  0.295426E+03  0.286881E+03  0.293604E+03  0.135564E+04  0.466661E+00  0.346071E-05  0.137599E+09  0.228682E+32  0.524925E+00  0.292279E+03  0.284055E+03  0.289853E+03  0.475075E+00  0.298904E+03  0.290004E+03  0.296829E+03
  0.135000E-02  0.500000E-04  0.169958E+03  0.162102E+01  0.325068E+24  0.151157E-01  0.297676E+03  0.289512E+03  0.293871E+03  0.133588E+04  0.483204E+00  0.354539E-05  0.134402E+09  0.218449E+32  0.500562E+00  0.296552E+03  0.288961E+03  0.290506E+03  0.499438E+00  0.298802E+03  0.290065E+03  0.296583E+03
  0.145000E-02  0.500000E-04  0.170106E+03  0.591989E+00  0.324491E+24  0.150888E-01  0.296562E+03  0.288291E+03  0.293488E+03  0.132852E+04  0.484512E+00  0.354836E-05  0.133499E+09  0.216597E+32  0.473378E+00  0.295827E+03  0.287479E+03  0.290059E+03  0.526622E+00  0.297222E+03  0.289021E+03  0.295978E+03
  0.155000E-02  0.500000E-04  0.173104E+03  0.233683E+01  0.318227E+24  0.147976E-01  0.297977E+03  0.289909E+03  0.294072E+03  0.130909E+04  0.491922E+00  0.362252E-05  0.131264E+09  0.208859E+32  0.448298E+00  0.296754E+03  0.286949E+03  0.290211E+03  0.551702E+00  0.298970E+03  0.292315E+03  0.296569E+03
  0.165000E-02  0.500000E-04  0.170993E+03  0.387866E+01  0.313256E+24  0.145664E-01  0.298705E+03  0.291883E+03  0.294250E+03  0.129179E+04  0.485411E+00  0.368226E-05  0.129077E+09  0.202171E+32  0.443982E+00  0.297870E+03  0.293662E+03  0.290428E+03  0.556018E+00  0.299373E+03  0.290462E+03  0.296687E+03
  0.175000E-02  0.500000E-04  0.166273E+03  0.470065E+01  0.311888E+24  0.145028E-01  0.303943E+03  0.295191E+03  0.294647E+03  0.130870E+04  0.467994E+00  0.371452E-05  0.128471E+09  0.200343E+32  0.415922E+00  0.304395E+03  0.294418E+03  0.291671E+03  0.584078E+00  0.303622E+03  0.295742E+03  0.296433E+03
  0.185000E-02  0.500000E-04  0.159926E+03  0.341486E+01  0.311230E+24  0.144722E-01  0.303546E+03  0.296031E+03  0.295021E+03  0.130423E+04  0.450348E+00  0.372115E-05  0.128801E+09  0.200434E+32  0.412551E+00  0.302416E+03  0.295271E+03  0.292404E+03  0.587449E+00  0.304340E+03  0.296566E+03  0.296603E+03
  0.195000E-02  0.500000E-04  0.156048E+03  0.117897E+01  0.306295E+24  0.142427E-01  0.301857E+03  0.291438E+03  0.294535E+03  0.127641E+04  0.440566E+00  0.377583E-05  0.126051E+09  0.193043E+32  0.412035E+00  0.302698E+03  0.293438E+03  0.291711E+03  0.587965E+00  0.301267E+03  0.290036E+03  0.296219E+03
  0.205000E-02  0.500000E-04  0.153754E+03 -0.703730E+00  0.305713E+24  0.142157E-01  0.300060E+03  0.296399E+03  0.294707E+03  0.126640E+04  0.435379E+00  0.377737E-05  0.125867E+09  0.192397E+32  0.408089E+00  0.298127E+03  0.295601E+03  0.293219E+03  0.591911E+00  0.301393E+03  0.296949E+03  0.295648E+03
  0.215000E-02  0.500000E-04  0.149018E+03  0.498551E+01  0.297616E+24  0.138392E-01  0.306450E+03  0.299970E+03  0.295188E+03  0.125912E+04  0.417774E+00  0.390063E-05  0.122843E+09  0.182801E+32  0.382867E+00  0.304712E+03  0.299935E+03  0.293007E+03  0.617133E+00  0.307529E+03  0.299991E+03  0.296388E+03
  0.225000E-02  0.500000E-04  0.147058E+03  0.947930E+00  0.289867E+24  0.134788E-01  0.303781E+03  0.295604E+03  0.294702E+03  0.121565E+04  0.413865E+00  0.399616E-05  0.119469E+09  0.173151E+32  0.381253E+00  0.301678E+03  0.295049E+03  0.292890E+03  0.618747E+00  0.305076E+03  0.295945E+03  0.295711E+03
  0.235000E-02  0.500000E-04  0.149660E+03 -0.940604E+00  0.282352E+24  0.131294E-01  0.306925E+03  0.292750E+03  0.294870E+03  0.119639E+04  0.419024E+00  0.411311E-05  0.117372E+09  0.165702E+32  0.381178E+00  0.307004E+03  0.292223E+03  0.292904E+03  0.618822E+00  0.306877E+03  0.293075E+03  0.295956E+03
  0.245000E-02  0.500000E-04  0.151285E+03  0.112601E+01  0.284972E+24  0.132512E-01  0.306387E+03  0.296046E+03  0.294969E+03  0.120537E+04  0.423950E+00  0.407350E-05  0.117785E+09  0.167827E+32  0.383385E+00  0.308651E+03  0.299858E+03  0.292931E+03  0.616615E+00  0.304980E+03  0.293676E+03  0.296100E+03
  0.255000E-02  0.500000E-04  0.147489E+03  0.187348E+01  0.287660E+24  0.133762E-01  0.306512E+03  0.299138E+03  0.294983E+03  0.121724E+04  0.413248E+00  0.403584E-05  0.118723E+09  0.170760E+32  0.375075E+00  0.303698E+03  0.299650E+03  0.293181E+03  0.624925E+00  0.308200E+03  0.298832E+03  0.295962E+03
  0.265000E-02  0.500000E-04  0.144114E+03  0.336470E+00  0.288013E+24  0.133926E-01  0.308182E+03  0.298961E+03  0.295578E+03  0.122537E+04  0.402665E+00  0.403638E-05  0.118685E+09  0.170914E+32  0.364523E+00  0.307841E+03  0.298910E+03  0.294727E+03  0.635477E+00  0.308377E+03  0.298991E+03  0.296044E+03
  0.275000E-02  0.500000E-04  0.144300E+03 -0.942434E+00  0.286473E+24  0.133210E-01  0.310440E+03  0.305277E+03  0.295536E+03  0.122775E+04  0.401723E+00  0.406549E-05  0.118821E+09  0.170196E+32  0.365464E+00  0.310116E+03  0.304067E+03  0.296429E+03  0.634536E+00  0.310626E+03  0.305975E+03  0.294995E+03
  0.285000E-02  0.500000E-04  0.146663E+03 -0.335073E+00  0.278248E+24  0.129385E-01  0.313528E+03  0.309176E+03  0.296089E+03  0.120436E+04  0.406279E+00  0.419605E-05  0.115255E+09  0.160347E+32  0.355644E+00  0.313083E+03  0.310246E+03  0.296352E+03  0.644356E+00  0.313773E+03  0.308585E+03  0.295942E+03
  0.295000E-02  0.500000E-04  0.146171E+03 -0.138732E+01  0.277132E+24  0.128867E-01  0.313586E+03  0.307045E+03  0.296267E+03  0.119976E+04  0.404896E+00  0.421313E-05  0.115422E+09  0.159936E+32  0.376865E+00  0.313768E+03  0.305822E+03  0.296930E+03  0.623135E+00  0.313476E+03  0.307785E+03  0.295850E+03
  0.305000E-02  0.500000E-04  0.143106E+03  0.289416E+01  0.282861E+24  0.131530E-01  0.309621E+03  0.302054E+03  0.296004E+03  0.120907E+04  0.398999E+00  0.411468E-05  0.116679E+09  0.165020E+32  0.386097E+00  0.307951E+03  0.303875E+03  0.296979E+03  0.613903E+00  0.310672E+03  0.300910E+03  0.295355E+03
  0.315000E-02  0.500000E-04  0.140654E+03  0.191383E+01  0.275756E+24  0.128226E-01  0.308602E+03  0.303496E+03  0.296409E+03  0.117482E+04  0.392766E+00  0.421724E-05  0.114685E+09  0.158125E+32  0.373202E+00  0.308788E+03  0.307285E+03  0.297672E+03  0.626798E+00  0.308491E+03  0.301239E+03  0.295599E+03
  0.325000E-02  0.500000E-04  0.135425E+03  0.406427E+01  0.275989E+24  0.128335E-01  0.308469E+03  0.299516E+03  0.295928E+03  0.117531E+04  0.378381E+00  0.421322E-05  0.114476E+09  0.157971E+32  0.360804E+00  0.306994E+03  0.302864E+03  0.298062E+03  0.639196E+00  0.309301E+03  0.297626E+03  0.294566E+03
  0.335000E-02  0.500000E-04  0.128293E+03 -0.295454E-01  0.270904E+24  0.125970E-01  0.308340E+03  0.303100E+03  0.295912E+03  0.115317E+04  0.358367E+00  0.429182E-05  0.112042E+09  0.151763E+32  0.355840E+00  0.304628E+03  0.303629E+03  0.297170E+03  0.644160E+00  0.310390E+03  0.302808E+03  0.295166E+03
  0.345000E-02  0.500000E-04  0.126669E+03  0.210324E+01  0.268166E+24  0.124697E-01  0.310318E+03  0.302805E+03  0.295960E+03  0.114884E+04  0.352751E+00  0.434262E-05  0.111227E+09  0.149137E+32  0.348069E+00  0.309927E+03  0.300743E+03  0.297296E+03  0.651931E+00  0.310527E+03  0.303905E+03  0.295192E+03
  0.355000E-02  0.500000E-04  0.123018E+03 -0.949727E+00  0.266464E+24  0.123906E-01  0.309009E+03  0.305051E+03  0.296619E+03  0.113673E+04  0.343269E+00  0.436574E-05  0.111170E+09  0.148113E+32  0.357774E+00  0.309254E+03  0.305449E+03  0.296838E+03  0.642226E+00  0.308873E+03  0.304829E+03  0.296495E+03
  0.365000E-02  0.500000E-04  0.120952E+03  0.181460E+01  0.263028E+24  0.122308E-01  0.311006E+03  0.307179E+03  0.296607E+03  0.112933E+04  0.336448E+00  0.442989E-05  0.108680E+09  0.142929E+32  0.333625E+00  0.311617E+03  0.306393E+03  0.297597E+03  0.666375E+00  0.310700E+03  0.307572E+03  0.296085E+03
  0.375000E-02  0.500000E-04  0.120850E+03 -0.296347E+01  0.264969E+24  0.123211E-01  0.304481E+03  0.299947E+03  0.296538E+03  0.111379E+04  0.339811E+00  0.437418E-05  0.109870E+09  0.145561E+32  0.336280E+00  0.306020E+03  0.299007E+03  0.296735E+03  0.663720E+00  0.303701E+03  0.300423E+03  0.296438E+03
  0.385000E-02  0.500000E-04  0.118499E+03  0.342700E+01  0.267979E+24  0.124610E-01  0.301033E+03  0.297449E+03  0.296108E+03  0.111369E+04  0.335144E+00  0.431277E-05  0.110680E+09  0.148300E+32  0.346110E+00  0.300858E+03  0.297906E+03  0.296246E+03  0.653890E+00  0.301125E+03  0.297207E+03  0.296034E+03
  0.395000E-02  0.500000E-04  0.120038E+03  0.164437E+00  0.256540E+24  0.119291E-01  0.305788E+03  0.296087E+03  0.296058E+03  0.108299E+04  0.336704E+00  0.452275E-05  0.106442E+09  0.136533E+32  0.341138E+00  0.305756E+03  0.296691E+03  0.296267E+03  0.658862E+00  0.305804E+03  0.295774E+03  0.295948E+03
  0.405000E-02  0.500000E-04  0.119300E+03 -0.155792E+01  0.258223E+24  0.120074E-01  0.302753E+03  0.296868E+03  0.295728E+03  0.107928E+04  0.336335E+00  0.448207E-05  0.106236E+09  0.137163E+32  0.345604E+00  0.301219E+03  0.299533E+03  0.296012E+03  0.654396E+00  0.303563E+03  0.295460E+03  0.295575E+03
  0.415000E-02  0.500000E-04  0.119723E+03  0.997994E+00  0.253628E+24  0.117937E-01  0.308630E+03  0.305189E+03  0.296629E+03  0.108065E+04  0.334283E+00  0.458527E-05  0.105604E+09  0.133920E+32  0.335116E+00  0.307280E+03  0.303035E+03  0.296211E+03  0.664884E+00  0.309311E+03  0.306274E+03  0.296835E+03
  0.425000E-02  0.500000E-04  0.117319E+03  0.284589E+01  0.252267E+24  0.117304E-01  0.311974E+03  0.306037E+03  0.296088E+03  0.108649E+04  0.325896E+00  0.462246E-05  0.105301E+09  0.132820E+32  0.344317E+00  0.311397E+03  0.304110E+03  0.296295E+03  0.655683E+00  0.312277E+03  0.307049E+03  0.295977E+03
  0.435000E-02  0.500000E-04  0.117896E+03 -0.286654E+01  0.257742E+24  0.119850E-01  0.306290E+03  0.302999E+03  0.295946E+03  0.108985E+04  0.330524E+00  0.450351E-05  0.106796E+09  0.137629E+32  0.362171E+00  0.307129E+03  0.302691E+03  0.296762E+03  0.637829E+00  0.305813E+03  0.303175E+03  0.295460E+03
  0.445000E-02  0.500000E-04  0.121411E+03  0.128894E+01  0.248776E+24  0.115681E-01  0.312741E+03  0.309892E+03  0.297257E+03  0.107409E+04  0.336768E+00  0.469020E-05  0.105129E+09  0.130768E+32  0.356608E+00  0.312233E+03  0.311230E+03  0.297580E+03  0.643392E+00  0.313022E+03  0.309150E+03  0.297074E+03
  0.455000E-02  0.500000E-04  0.114150E+03  0.252441E+01  0.253591E+24  0.117920E-01  0.306766E+03  0.299964E+03  0.296932E+03  0.107397E+04  0.319757E+00  0.457900E-05  0.104517E+09  0.132523E+32  0.356679E+00  0.307380E+03  0.299581E+03  0.295473E+03  0.643321E+00  0.306426E+03  0.300176E+03  0.297680E+03
  0.465000E-02  0.500000E-04  0.116532E+03 -0.176928E+01  0.244328E+24  0.113612E-01  0.309240E+03  0.304244E+03  0.296733E+03  0.104308E+04  0.325078E+00  0.476215E-05  0.101409E+09  0.123885E+32  0.346159E+00  0.310871E+03  0.306063E+03  0.296458E+03  0.653841E+00  0.308376E+03  0.303281E+03  0.296876E+03
  0.475000E-02  0.500000E-04  0.110973E+03  0.418126E+01  0.250165E+24  0.116327E-01  0.306086E+03  0.303347E+03  0.296889E+03  0.105711E+04  0.311349E+00  0.463913E-05  0.104248E+09  0.130397E+32  0.341193E+00  0.305999E+03  0.306123E+03  0.297293E+03  0.658807E+00  0.306130E+03  0.301909E+03  0.296675E+03
  0.485000E-02  0.500000E-04  0.105533E+03  0.240058E+01  0.253556E+24  0.117904E-01  0.306604E+03  0.299024E+03  0.296405E+03  0.107325E+04  0.295702E+00  0.457903E-05  0.105843E+09  0.134185E+32  0.353849E+00  0.304944E+03  0.297681E+03  0.296890E+03  0.646151E+00  0.307514E+03  0.299760E+03  0.296132E+03
  0.495000E-02  0.500000E-04  0.106601E+03 -0.109996E+01  0.250210E+24  0.116348E-01  0.304844E+03  0.300101E+03  0.296406E+03  0.105301E+04  0.299493E+00  0.463359E-05  0.103512E+09  0.129499E+32  0.332972E+00  0.303691E+03  0.299948E+03  0.296450E+03  0.667028E+00  0.305420E+03  0.300177E+03  0.296384E+03
  0.505000E-02  0.500000E-04  0.111094E+03 -0.100318E+00  0.247525E+24  0.115099E-01  0.303485E+03  0.303635E+03  0.296367E+03  0.103707E+04  0.312798E+00  0.467862E-05  0.101973E+09  0.126205E+32  0.339996E+00  0.303413E+03  0.302088E+03  0.297308E+03  0.660004E+00  0.303523E+03  0.304431E+03  0.295857E+03
  0.515000E-02  0.500000E-04  0.111872E+03 -0.282444E+01  0.253576E+24  0.117913E-01  0.302748E+03  0.297768E+03  0.297366E+03  0.105983E+04  0.315472E+00  0.456421E-05  0.104971E+09  0.133090E+32  0.340017E+00  0.301945E+03  0.297298E+03  0.297189E+03  0.659984E+00  0.303162E+03  0.298011E+03  0.297457E+03
  0.525000E-02  0.500000E-04  0.111390E+03  0.312527E+01  0.254571E+24  0.118375E-01  0.302608E+03  0.298127E+03  0.297032E+03  0.106350E+04  0.314208E+00  0.454584E-05  0.105890E+09  0.134783E+32  0.328645E+00  0.302414E+03  0.299639E+03  0.297451E+03  0.671355E+00  0.302703E+03  0.297387E+03  0.296822E+03
  0.535000E-02  0.500000E-04  0.109518E+03 -0.420454E-01  0.249812E+24  0.116163E-01  0.300636E+03  0.299709E+03  0.296740E+03  0.103682E+04  0.309816E+00  0.462487E-05  0.103019E+09  0.128677E+32  0.344676E+00  0.299882E+03  0.301249E+03  0.296515E+03  0.655324E+00  0.301033E+03  0.298899E+03  0.296857E+03
  0.545000E-02  0.500000E-04  0.108388E+03  0.723392E+00  0.245349E+24  0.114087E-01  0.305006E+03  0.303804E+03  0.296191E+03  0.103310E+04  0.304423E+00  0.472602E-05  0.102096E+09  0.125246E+32  0.327317E+00  0.304009E+03  0.301772E+03  0.296979E+03  0.672683E+00  0.305492E+03  0.304793E+03  0.295791E+03