TITLE=" Box                                                                     /                                                                         "
VARIABLES="X",        "Y",      "Vx   ",      "Vy   ",      "Nden ",      "Rho  ",      "Ttrn ",      "Trot ",      "Tvib ",      "Press",      "Ma   ",      "Lambd",      "Relac",      "Coll ",      "frac1",      "Ttrn1",      "Trot1",      "Tvib1",      "frac2",      "Ttrn2",      "Trot2",      "Tvib2"
ZONE T="DSMC,BG", I=  200, J=   50, F=POINT
 -0.395000E-02  0.500000E-04  0.802539E+03  0.253660E+02  0.128527E+25  0.597650E-01  0.100179E+03  0.840926E+02  0.233316E+03  0.177754E+04  0.393489E+01  0.682972E-06  0.383691E+09  0.246573E+33  0.000000E+00  0.000000E+00  0.000000E+00  0.000000E+00  0.100000E+01  0.100179E+03  0.840926E+02  0.233316E+03
 -0.385000E-02  0.500000E-04  0.742395E+03  0.677235E+02  0.138896E+25  0.645866E-01  0.143346E+03  0.115553E+03  0.245656E+03  0.274868E+04  0.305408E+01  0.691209E-06  0.476313E+09  0.330790E+33  0.000000E+00  0.000000E+00  0.000000E+00  0.000000E+00  0.100000E+01  0.143346E+03  0.115553E+03  0.245656E+03
 -0.375000E-02  0.500000E-04  0.713366E+03  0.892952E+02  0.138429E+25  0.643695E-01  0.159909E+03  0.130207E+03  0.250279E+03  0.305597E+04  0.278863E+01  0.712761E-06  0.529055E+09  0.366183E+33  0.000000E+00  0.000000E+00  0.000000E+00  0.000000E+00  0.100000E+01  0.159909E+03  0.130207E+03  0.250279E+03
 -0.365000E-02  0.500000E-04  0.676364E+03  0.745744E+02  0.111497E+25  0.518459E-01  0.184611E+03  0.148142E+03  0.256841E+03  0.284163E+04  0.245649E+01  0.917288E-06  0.461390E+09  0.257217E+33  0.000000E+00  0.000000E+00  0.000000E+00  0.000000E+00  0.100000E+01  0.184611E+03  0.148142E+03  0.256841E+03
 -0.355000E-02  0.500000E-04  0.625693E+03  0.525479E+02  0.866026E+24  0.402702E-01  0.214022E+03  0.171524E+03  0.264393E+03  0.255882E+04  0.210522E+01  0.122543E-05  0.357746E+09  0.154908E+33  0.000000E+00  0.000000E+00  0.000000E+00  0.000000E+00  0.100000E+01  0.214022E+03  0.171524E+03  0.264393E+03
 -0.345000E-02  0.500000E-04  0.579620E+03  0.394923E+02  0.712751E+24  0.331429E-01  0.236329E+03  0.191402E+03  0.269754E+03  0.232544E+04  0.185366E+01  0.152632E-05  0.293966E+09  0.104762E+33  0.000000E+00  0.000000E+00  0.000000E+00  0.000000E+00  0.100000E+01  0.236329E+03  0.191402E+03  0.269754E+03
 -0.335000E-02  0.500000E-04  0.536604E+03  0.302705E+02  0.611370E+24  0.284287E-01  0.254113E+03  0.209084E+03  0.274561E+03  0.214476E+04  0.165375E+01  0.181199E-05  0.251095E+09  0.767559E+32  0.000000E+00  0.000000E+00  0.000000E+00  0.000000E+00  0.100000E+01  0.254113E+03  0.209084E+03  0.274561E+03
 -0.325000E-02  0.500000E-04  0.499576E+03  0.231244E+02  0.543909E+24  0.252918E-01  0.267693E+03  0.222336E+03  0.278041E+03  0.201008E+04  0.149929E+01  0.206341E-05  0.222616E+09  0.605414E+32  0.000000E+00  0.000000E+00  0.000000E+00  0.000000E+00  0.100000E+01  0.267693E+03  0.222336E+03  0.278041E+03
 -0.315000E-02  0.500000E-04  0.464332E+03  0.194840E+02  0.500803E+24  0.232874E-01  0.277940E+03  0.234755E+03  0.280293E+03  0.192162E+04  0.136733E+01  0.226216E-05  0.204098E+09  0.511066E+32  0.000000E+00  0.000000E+00  0.000000E+00  0.000000E+00  0.100000E+01  0.277940E+03  0.234755E+03  0.280293E+03
 -0.305000E-02  0.500000E-04  0.429241E+03  0.157281E+02  0.470394E+24  0.218733E-01  0.286837E+03  0.245309E+03  0.282334E+03  0.186271E+04  0.124398E+01  0.242745E-05  0.190456E+09  0.447947E+32  0.000000E+00  0.000000E+00  0.000000E+00  0.000000E+00  0.100000E+01  0.286837E+03  0.245309E+03  0.282334E+03
 -0.295000E-02  0.500000E-04  0.409118E+03  0.132456E+02  0.435527E+24  0.202520E-01  0.290149E+03  0.251754E+03  0.283774E+03  0.174456E+04  0.117871E+01  0.262932E-05  0.177120E+09  0.385704E+32  0.000000E+00  0.000000E+00  0.000000E+00  0.000000E+00  0.100000E+01  0.290149E+03  0.251754E+03  0.283774E+03
 -0.285000E-02  0.500000E-04  0.390934E+03  0.957905E+01  0.412570E+24  0.191845E-01  0.293991E+03  0.259285E+03  0.285335E+03  0.167448E+04  0.111868E+01  0.278477E-05  0.167662E+09  0.345860E+32  0.000000E+00  0.000000E+00  0.000000E+00  0.000000E+00  0.100000E+01  0.293991E+03  0.259285E+03  0.285335E+03
 -0.275000E-02  0.500000E-04  0.380680E+03  0.755311E+01  0.389013E+24  0.180891E-01  0.295195E+03  0.262032E+03  0.286244E+03  0.158534E+04  0.108700E+01  0.295642E-05  0.158185E+09  0.307680E+32  0.000000E+00  0.000000E+00  0.000000E+00  0.000000E+00  0.100000E+01  0.295195E+03  0.262032E+03  0.286244E+03
 -0.265000E-02  0.500000E-04  0.358124E+03  0.859841E+01  0.385384E+24  0.179204E-01  0.298468E+03  0.267380E+03  0.286924E+03  0.158796E+04  0.101707E+01  0.299249E-05  0.157020E+09  0.302566E+32  0.000000E+00  0.000000E+00  0.000000E+00  0.000000E+00  0.100000E+01  0.298468E+03  0.267380E+03  0.286924E+03
 -0.255000E-02  0.500000E-04  0.341460E+03  0.787031E+01  0.373585E+24  0.173717E-01  0.302973E+03  0.271917E+03  0.287794E+03  0.156258E+04  0.962484E+00  0.309859E-05  0.152357E+09  0.284591E+32  0.000000E+00  0.000000E+00  0.000000E+00  0.000000E+00  0.100000E+01  0.302973E+03  0.271917E+03  0.287794E+03
 -0.245000E-02  0.500000E-04  0.327140E+03  0.810233E+01  0.361504E+24  0.168099E-01  0.304312E+03  0.274357E+03  0.288343E+03  0.151873E+04  0.920125E+00  0.320568E-05  0.147892E+09  0.267317E+32  0.000000E+00  0.000000E+00  0.000000E+00  0.000000E+00  0.100000E+01  0.304312E+03  0.274357E+03  0.288343E+03
 -0.235000E-02  0.500000E-04  0.321439E+03  0.323827E+01  0.345483E+24  0.160650E-01  0.303481E+03  0.277505E+03  0.288945E+03  0.144746E+04  0.905097E+00  0.335204E-05  0.141661E+09  0.244707E+32  0.000000E+00  0.000000E+00  0.000000E+00  0.000000E+00  0.100000E+01  0.303481E+03  0.277505E+03  0.288945E+03
 -0.225000E-02  0.500000E-04  0.309284E+03  0.513715E+01  0.342634E+24  0.159325E-01  0.301953E+03  0.279435E+03  0.289538E+03  0.142829E+04  0.873148E+00  0.337565E-05  0.139776E+09  0.239459E+32  0.000000E+00  0.000000E+00  0.000000E+00  0.000000E+00  0.100000E+01  0.301953E+03  0.279435E+03  0.289538E+03
 -0.215000E-02  0.500000E-04  0.299362E+03  0.380901E+01  0.337243E+24  0.156818E-01  0.306221E+03  0.283978E+03  0.290075E+03  0.142569E+04  0.839179E+00  0.344166E-05  0.138421E+09  0.233408E+32  0.000000E+00  0.000000E+00  0.000000E+00  0.000000E+00  0.100000E+01  0.306221E+03  0.283978E+03  0.290075E+03
 -0.205000E-02  0.500000E-04  0.293469E+03  0.607736E+01  0.327928E+24  0.152486E-01  0.307087E+03  0.284865E+03  0.290749E+03  0.139023E+04  0.821609E+00  0.354193E-05  0.134633E+09  0.220749E+32  0.000000E+00  0.000000E+00  0.000000E+00  0.000000E+00  0.100000E+01  0.307087E+03  0.284865E+03  0.290749E+03
 -0.195000E-02  0.500000E-04  0.280751E+03  0.387793E+01  0.328262E+24  0.152642E-01  0.306184E+03  0.286071E+03  0.290994E+03  0.138756E+04  0.787067E+00  0.353572E-05  0.135104E+09  0.221747E+32  0.000000E+00  0.000000E+00  0.000000E+00  0.000000E+00  0.100000E+01  0.306184E+03  0.286071E+03  0.290994E+03
 -0.185000E-02  0.500000E-04  0.274644E+03  0.441951E+01  0.321952E+24  0.149708E-01  0.307500E+03  0.285729E+03  0.290981E+03  0.136674E+04  0.768326E+00  0.360888E-05  0.132234E+09  0.212865E+32  0.000000E+00  0.000000E+00  0.000000E+00  0.000000E+00  0.100000E+01  0.307500E+03  0.285729E+03  0.290981E+03
 -0.175000E-02  0.500000E-04  0.267878E+03  0.165660E+01  0.314126E+24  0.146069E-01  0.305813E+03  0.285726E+03  0.291346E+03  0.132620E+04  0.751378E+00  0.369371E-05  0.128764E+09  0.202241E+32  0.000000E+00  0.000000E+00  0.000000E+00  0.000000E+00  0.100000E+01  0.305813E+03  0.285726E+03  0.291346E+03
 -0.165000E-02  0.500000E-04  0.261529E+03  0.400994E+01  0.311359E+24  0.144782E-01  0.307186E+03  0.289490E+03  0.291317E+03  0.132042E+04  0.732000E+00  0.373072E-05  0.127623E+09  0.198682E+32  0.000000E+00  0.000000E+00  0.000000E+00  0.000000E+00  0.100000E+01  0.307186E+03  0.289490E+03  0.291317E+03
 -0.155000E-02  0.500000E-04  0.257135E+03  0.524830E+00  0.308788E+24  0.143586E-01  0.307180E+03  0.291071E+03  0.291292E+03  0.130949E+04  0.719626E+00  0.376176E-05  0.126884E+09  0.195901E+32  0.000000E+00  0.000000E+00  0.000000E+00  0.000000E+00  0.100000E+01  0.307180E+03  0.291071E+03  0.291292E+03
 -0.145000E-02  0.500000E-04  0.251895E+03  0.310370E+01  0.308058E+24  0.143247E-01  0.307862E+03  0.289295E+03  0.291380E+03  0.130930E+04  0.704231E+00  0.377276E-05  0.126644E+09  0.195068E+32  0.000000E+00  0.000000E+00  0.000000E+00  0.000000E+00  0.100000E+01  0.307862E+03  0.289295E+03  0.291380E+03
 -0.135000E-02  0.500000E-04  0.246823E+03  0.330995E+01  0.301303E+24  0.140106E-01  0.308011E+03  0.291657E+03  0.291977E+03  0.128120E+04  0.689894E+00  0.385782E-05  0.123265E+09  0.185700E+32  0.000000E+00  0.000000E+00  0.000000E+00  0.000000E+00  0.100000E+01  0.308011E+03  0.291657E+03  0.291977E+03
 -0.125000E-02  0.500000E-04  0.240521E+03  0.317190E+01  0.298842E+24  0.138962E-01  0.306104E+03  0.289141E+03  0.292442E+03  0.126287E+04  0.674368E+00  0.388355E-05  0.123199E+09  0.184085E+32  0.000000E+00  0.000000E+00  0.000000E+00  0.000000E+00  0.100000E+01  0.306104E+03  0.289141E+03  0.292442E+03
 -0.115000E-02  0.500000E-04  0.233995E+03  0.368185E+01  0.296027E+24  0.137653E-01  0.305774E+03  0.290293E+03  0.292556E+03  0.124963E+04  0.656449E+00  0.391942E-05  0.121719E+09  0.180161E+32  0.000000E+00  0.000000E+00  0.000000E+00  0.000000E+00  0.100000E+01  0.305774E+03  0.290293E+03  0.292556E+03
 -0.105000E-02  0.500000E-04  0.229343E+03  0.489632E+00  0.294497E+24  0.136941E-01  0.306132E+03  0.291329E+03  0.292623E+03  0.124462E+04  0.642944E+00  0.394094E-05  0.121030E+09  0.178214E+32  0.000000E+00  0.000000E+00  0.000000E+00  0.000000E+00  0.100000E+01  0.306132E+03  0.291329E+03  0.292623E+03
 -0.950000E-03  0.500000E-04  0.221811E+03  0.404118E+01  0.296267E+24  0.137764E-01  0.307619E+03  0.292616E+03  0.292896E+03  0.125819E+04  0.620425E+00  0.392213E-05  0.121974E+09  0.180685E+32  0.000000E+00  0.000000E+00  0.000000E+00  0.000000E+00  0.100000E+01  0.307619E+03  0.292616E+03  0.292896E+03
 -0.850000E-03  0.500000E-04  0.220927E+03  0.207430E+01  0.286512E+24  0.133228E-01  0.310010E+03  0.293800E+03  0.293310E+03  0.122622E+04  0.615490E+00  0.406353E-05  0.118668E+09  0.170000E+32  0.000000E+00  0.000000E+00  0.000000E+00  0.000000E+00  0.100000E+01  0.310010E+03  0.293800E+03  0.293310E+03
 -0.750000E-03  0.500000E-04  0.214039E+03  0.589061E+00  0.285940E+24  0.132962E-01  0.309287E+03  0.294919E+03  0.293317E+03  0.122091E+04  0.596974E+00  0.406929E-05  0.118084E+09  0.168825E+32  0.000000E+00  0.000000E+00  0.000000E+00  0.000000E+00  0.100000E+01  0.309287E+03  0.294919E+03  0.293317E+03
 -0.650000E-03  0.500000E-04  0.209547E+03  0.179547E+01  0.284891E+24  0.132474E-01  0.310177E+03  0.296036E+03  0.293697E+03  0.121994E+04  0.583625E+00  0.408721E-05  0.117675E+09  0.167623E+32  0.000000E+00  0.000000E+00  0.000000E+00  0.000000E+00  0.100000E+01  0.310177E+03  0.296036E+03  0.293697E+03
 -0.550000E-03  0.500000E-04  0.201280E+03  0.316313E+01  0.286807E+24  0.133365E-01  0.308481E+03  0.298370E+03  0.293889E+03  0.122143E+04  0.562187E+00  0.405435E-05  0.118509E+09  0.169946E+32  0.000000E+00  0.000000E+00  0.000000E+00  0.000000E+00  0.100000E+01  0.308481E+03  0.298370E+03  0.293889E+03
 -0.450000E-03  0.500000E-04  0.201174E+03  0.297612E+00  0.279611E+24  0.130019E-01  0.309791E+03  0.297266E+03  0.293312E+03  0.119584E+04  0.560632E+00  0.416309E-05  0.115715E+09  0.161776E+32  0.000000E+00  0.000000E+00  0.000000E+00  0.000000E+00  0.100000E+01  0.309791E+03  0.297266E+03  0.293312E+03
 -0.350000E-03  0.500000E-04  0.199710E+03  0.266543E+01  0.277259E+24  0.128925E-01  0.310044E+03  0.297956E+03  0.293322E+03  0.118675E+04  0.556374E+00  0.419927E-05  0.114479E+09  0.158702E+32  0.000000E+00  0.000000E+00  0.000000E+00  0.000000E+00  0.100000E+01  0.310044E+03  0.297956E+03  0.293322E+03
 -0.250000E-03  0.500000E-04  0.197323E+03  0.107142E+00  0.275581E+24  0.128145E-01  0.307922E+03  0.299042E+03  0.292993E+03  0.117149E+04  0.551567E+00  0.421758E-05  0.114029E+09  0.157121E+32  0.000000E+00  0.000000E+00  0.000000E+00  0.000000E+00  0.100000E+01  0.307922E+03  0.299042E+03  0.292993E+03
 -0.150000E-03  0.500000E-04  0.192741E+03  0.115884E+01  0.274873E+24  0.127816E-01  0.308873E+03  0.299268E+03  0.293751E+03  0.117209E+04  0.537939E+00  0.423171E-05  0.113595E+09  0.156121E+32  0.000000E+00  0.000000E+00  0.000000E+00  0.000000E+00  0.100000E+01  0.308873E+03  0.299268E+03  0.293751E+03
 -0.499999E-04  0.500000E-04  0.188045E+03 -0.145397E+00  0.274489E+24  0.127637E-01  0.310146E+03  0.299893E+03  0.294415E+03  0.117528E+04  0.523744E+00  0.424199E-05  0.113438E+09  0.155688E+32  0.000000E+00  0.000000E+00  0.000000E+00  0.000000E+00  0.100000E+01  0.310146E+03  0.299893E+03  0.294415E+03
  0.499999E-04  0.500000E-04  0.188501E+03  0.180515E+01  0.269714E+24  0.125417E-01  0.310159E+03  0.298780E+03  0.294373E+03  0.115488E+04  0.525027E+00  0.431714E-05  0.111135E+09  0.149873E+32  0.000000E+00  0.000000E+00  0.000000E+00  0.000000E+00  0.100000E+01  0.310159E+03  0.298780E+03  0.294373E+03
  0.150000E-03  0.500000E-04  0.186420E+03  0.145559E+01  0.270472E+24  0.125770E-01  0.309804E+03  0.298446E+03  0.294526E+03  0.115680E+04  0.519520E+00  0.430380E-05  0.112101E+09  0.151601E+32  0.000000E+00  0.000000E+00  0.000000E+00  0.000000E+00  0.100000E+01  0.309804E+03  0.298446E+03  0.294526E+03
  0.250000E-03  0.500000E-04  0.188724E+03 -0.131161E+01  0.264655E+24  0.123064E-01  0.313114E+03  0.299916E+03  0.294526E+03  0.114401E+04  0.523152E+00  0.441011E-05  0.110202E+09  0.145828E+32  0.000000E+00  0.000000E+00  0.000000E+00  0.000000E+00  0.100000E+01  0.313114E+03  0.299916E+03  0.294526E+03
  0.350000E-03  0.500000E-04  0.181045E+03  0.192967E+01  0.271152E+24  0.126086E-01  0.309932E+03  0.299306E+03  0.294477E+03  0.116019E+04  0.504450E+00  0.429346E-05  0.112399E+09  0.152386E+32  0.000000E+00  0.000000E+00  0.000000E+00  0.000000E+00  0.100000E+01  0.309932E+03  0.299306E+03  0.294477E+03
  0.450000E-03  0.500000E-04  0.178989E+03  0.250924E+01  0.267142E+24  0.124221E-01  0.307015E+03  0.299818E+03  0.294610E+03  0.113227E+04  0.501106E+00  0.434760E-05  0.110468E+09  0.147554E+32  0.000000E+00  0.000000E+00  0.000000E+00  0.000000E+00  0.100000E+01  0.307015E+03  0.299818E+03  0.294610E+03
  0.550000E-03  0.500000E-04  0.175511E+03  0.904415E+00  0.268990E+24  0.125080E-01  0.306258E+03  0.297783E+03  0.294398E+03  0.113729E+04  0.491936E+00  0.431508E-05  0.111039E+09  0.149341E+32  0.000000E+00  0.000000E+00  0.000000E+00  0.000000E+00  0.100000E+01  0.306258E+03  0.297783E+03  0.294398E+03
  0.650000E-03  0.500000E-04  0.174814E+03  0.217018E+01  0.266815E+24  0.124069E-01  0.307033E+03  0.298623E+03  0.294890E+03  0.113095E+04  0.489394E+00  0.435300E-05  0.109825E+09  0.146515E+32  0.000000E+00  0.000000E+00  0.000000E+00  0.000000E+00  0.100000E+01  0.307033E+03  0.298623E+03  0.294890E+03
  0.750000E-03  0.500000E-04  0.172636E+03 -0.117952E+01  0.264167E+24  0.122837E-01  0.307537E+03  0.299198E+03  0.294946E+03  0.112156E+04  0.482873E+00  0.439844E-05  0.109221E+09  0.144263E+32  0.000000E+00  0.000000E+00  0.000000E+00  0.000000E+00  0.100000E+01  0.307537E+03  0.299198E+03  0.294946E+03
  0.850000E-03  0.500000E-04  0.172313E+03  0.263003E+00  0.262641E+24  0.122128E-01  0.306640E+03  0.297987E+03  0.295175E+03  0.111183E+04  0.482663E+00  0.442077E-05  0.108454E+09  0.142422E+32  0.000000E+00  0.000000E+00  0.000000E+00  0.000000E+00  0.100000E+01  0.306640E+03  0.297987E+03  0.295175E+03
  0.950000E-03  0.500000E-04  0.171706E+03 -0.415440E-01  0.262834E+24  0.122218E-01  0.305896E+03  0.295637E+03  0.294915E+03  0.110995E+04  0.481547E+00  0.441484E-05  0.108008E+09  0.141941E+32  0.000000E+00  0.000000E+00  0.000000E+00  0.000000E+00  0.100000E+01  0.305896E+03  0.295637E+03  0.294915E+03
  0.105000E-02  0.500000E-04  0.169780E+03  0.122197E+01  0.264591E+24  0.123035E-01  0.307309E+03  0.298886E+03  0.294205E+03  0.112253E+04  0.475064E+00  0.439058E-05  0.109163E+09  0.144417E+32  0.000000E+00  0.000000E+00  0.000000E+00  0.000000E+00  0.100000E+01  0.307309E+03  0.298886E+03  0.294205E+03
  0.115000E-02  0.500000E-04  0.167498E+03  0.328017E+00  0.263560E+24  0.122555E-01  0.308652E+03  0.301042E+03  0.294630E+03  0.112305E+04  0.467646E+00  0.441257E-05  0.108717E+09  0.143267E+32  0.000000E+00  0.000000E+00  0.000000E+00  0.000000E+00  0.100000E+01  0.308652E+03  0.301042E+03  0.294630E+03
  0.125000E-02  0.500000E-04  0.166527E+03  0.825807E+00  0.262202E+24  0.121924E-01  0.308062E+03  0.298160E+03  0.294694E+03  0.111512E+04  0.465386E+00  0.443329E-05  0.108860E+09  0.142717E+32  0.000000E+00  0.000000E+00  0.000000E+00  0.000000E+00  0.100000E+01  0.308062E+03  0.298160E+03  0.294694E+03
  0.135000E-02  0.500000E-04  0.162229E+03  0.286856E+01  0.262133E+24  0.121892E-01  0.308630E+03  0.297083E+03  0.294932E+03  0.111689E+04  0.453020E+00  0.443649E-05  0.108504E+09  0.142213E+32  0.000000E+00  0.000000E+00  0.000000E+00  0.000000E+00  0.100000E+01  0.308630E+03  0.297083E+03  0.294932E+03
  0.145000E-02  0.500000E-04  0.157407E+03  0.444864E+00  0.259554E+24  0.120693E-01  0.307158E+03  0.299677E+03  0.295262E+03  0.110062E+04  0.440541E+00  0.447523E-05  0.107389E+09  0.139366E+32  0.000000E+00  0.000000E+00  0.000000E+00  0.000000E+00  0.100000E+01  0.307158E+03  0.299677E+03  0.295262E+03
  0.155000E-02  0.500000E-04  0.157139E+03 -0.880366E-01  0.258297E+24  0.120108E-01  0.307481E+03  0.301233E+03  0.295211E+03  0.109644E+04  0.439558E+00  0.449819E-05  0.107172E+09  0.138411E+32  0.000000E+00  0.000000E+00  0.000000E+00  0.000000E+00  0.100000E+01  0.307481E+03  0.301233E+03  0.295211E+03
  0.165000E-02  0.500000E-04  0.156330E+03  0.182348E+01  0.255363E+24  0.118744E-01  0.307522E+03  0.300956E+03  0.295657E+03  0.108413E+04  0.437295E+00  0.455003E-05  0.105423E+09  0.134606E+32  0.000000E+00  0.000000E+00  0.000000E+00  0.000000E+00  0.100000E+01  0.307522E+03  0.300956E+03  0.295657E+03
  0.175000E-02  0.500000E-04  0.152812E+03 -0.110752E+00  0.257123E+24  0.119562E-01  0.307746E+03  0.300739E+03  0.294942E+03  0.109240E+04  0.427268E+00  0.451970E-05  0.105824E+09  0.136049E+32  0.000000E+00  0.000000E+00  0.000000E+00  0.000000E+00  0.100000E+01  0.307746E+03  0.300739E+03  0.294942E+03
  0.185000E-02  0.500000E-04  0.154454E+03  0.192719E+01  0.254362E+24  0.118278E-01  0.308319E+03  0.299740E+03  0.294684E+03  0.108268E+04  0.431493E+00  0.457088E-05  0.104965E+09  0.133496E+32  0.000000E+00  0.000000E+00  0.000000E+00  0.000000E+00  0.100000E+01  0.308319E+03  0.299740E+03  0.294684E+03
  0.195000E-02  0.500000E-04  0.148266E+03  0.146033E+01  0.256015E+24  0.119047E-01  0.307440E+03  0.299212E+03  0.295449E+03  0.108661E+04  0.414786E+00  0.453814E-05  0.106536E+09  0.136374E+32  0.000000E+00  0.000000E+00  0.000000E+00  0.000000E+00  0.100000E+01  0.307440E+03  0.299212E+03  0.295449E+03
  0.205000E-02  0.500000E-04  0.149266E+03 -0.841870E+00  0.251539E+24  0.116966E-01  0.304440E+03  0.298111E+03  0.295105E+03  0.105720E+04  0.419621E+00  0.460757E-05  0.103877E+09  0.130645E+32  0.000000E+00  0.000000E+00  0.000000E+00  0.000000E+00  0.100000E+01  0.304440E+03  0.298111E+03  0.295105E+03
  0.215000E-02  0.500000E-04  0.148348E+03  0.701529E+00  0.252722E+24  0.117516E-01  0.306167E+03  0.299111E+03  0.294377E+03  0.106819E+04  0.415862E+00  0.459251E-05  0.104233E+09  0.131710E+32  0.000000E+00  0.000000E+00  0.000000E+00  0.000000E+00  0.100000E+01  0.306167E+03  0.299111E+03  0.294377E+03
  0.225000E-02  0.500000E-04  0.151594E+03 -0.165503E+01  0.250869E+24  0.116654E-01  0.308677E+03  0.302950E+03  0.294933E+03  0.106905E+04  0.423249E+00  0.463588E-05  0.104149E+09  0.130639E+32  0.000000E+00  0.000000E+00  0.000000E+00  0.000000E+00  0.100000E+01  0.308677E+03  0.302950E+03  0.294933E+03
  0.235000E-02  0.500000E-04  0.149512E+03  0.206342E+01  0.251876E+24  0.117122E-01  0.310471E+03  0.304146E+03  0.294570E+03  0.107959E+04  0.416245E+00  0.462403E-05  0.104350E+09  0.131416E+32  0.000000E+00  0.000000E+00  0.000000E+00  0.000000E+00  0.100000E+01  0.310471E+03  0.304146E+03  0.294570E+03
  0.245000E-02  0.500000E-04  0.147385E+03  0.949418E+00  0.250125E+24  0.116308E-01  0.308294E+03  0.298359E+03  0.294541E+03  0.106456E+04  0.411736E+00  0.464822E-05  0.103517E+09  0.129461E+32  0.000000E+00  0.000000E+00  0.000000E+00  0.000000E+00  0.100000E+01  0.308294E+03  0.298359E+03  0.294541E+03
  0.255000E-02  0.500000E-04  0.144202E+03  0.160445E+01  0.248585E+24  0.115592E-01  0.308492E+03  0.300557E+03  0.294830E+03  0.105869E+04  0.402732E+00  0.467777E-05  0.103435E+09  0.128561E+32  0.000000E+00  0.000000E+00  0.000000E+00  0.000000E+00  0.100000E+01  0.308492E+03  0.300557E+03  0.294830E+03
  0.265000E-02  0.500000E-04  0.140528E+03 -0.177013E+00  0.251112E+24  0.116767E-01  0.305751E+03  0.300333E+03  0.295140E+03  0.105995E+04  0.394203E+00  0.462038E-05  0.103756E+09  0.130272E+32  0.000000E+00  0.000000E+00  0.000000E+00  0.000000E+00  0.100000E+01  0.305751E+03  0.300333E+03  0.295140E+03
  0.275000E-02  0.500000E-04  0.142061E+03 -0.423073E+00  0.247572E+24  0.115121E-01  0.307074E+03  0.299091E+03  0.294978E+03  0.104953E+04  0.397645E+00  0.469151E-05  0.102238E+09  0.126556E+32  0.000000E+00  0.000000E+00  0.000000E+00  0.000000E+00  0.100000E+01  0.307074E+03  0.299091E+03  0.294978E+03
  0.285000E-02  0.500000E-04  0.141401E+03  0.280375E+00  0.249132E+24  0.115846E-01  0.306217E+03  0.300232E+03  0.295274E+03  0.105319E+04  0.396350E+00  0.465887E-05  0.102574E+09  0.127772E+32  0.000000E+00  0.000000E+00  0.000000E+00  0.000000E+00  0.100000E+01  0.306217E+03  0.300232E+03  0.295274E+03
  0.295000E-02  0.500000E-04  0.141562E+03  0.183249E+00  0.252073E+24  0.117214E-01  0.306098E+03  0.301136E+03  0.295396E+03  0.106521E+04  0.396879E+00  0.460406E-05  0.104100E+09  0.131204E+32  0.000000E+00  0.000000E+00  0.000000E+00  0.000000E+00  0.100000E+01  0.306098E+03  0.301136E+03  0.295396E+03
  0.305000E-02  0.500000E-04  0.138865E+03  0.169502E+01  0.250547E+24  0.116504E-01  0.305406E+03  0.297380E+03  0.295433E+03  0.105637E+04  0.389788E+00  0.462949E-05  0.103382E+09  0.129510E+32  0.000000E+00  0.000000E+00  0.000000E+00  0.000000E+00  0.100000E+01  0.305406E+03  0.297380E+03  0.295433E+03
  0.315000E-02  0.500000E-04  0.137689E+03  0.139214E+00  0.247488E+24  0.115082E-01  0.304208E+03  0.297240E+03  0.295474E+03  0.103938E+04  0.387218E+00  0.468210E-05  0.102147E+09  0.126400E+32  0.000000E+00  0.000000E+00  0.000000E+00  0.000000E+00  0.100000E+01  0.304208E+03  0.297240E+03  0.295474E+03
  0.325000E-02  0.500000E-04  0.136588E+03  0.374488E+00  0.245654E+24  0.114229E-01  0.304979E+03  0.299078E+03  0.295857E+03  0.103429E+04  0.383636E+00  0.472004E-05  0.101334E+09  0.124466E+32  0.000000E+00  0.000000E+00  0.000000E+00  0.000000E+00  0.100000E+01  0.304979E+03  0.299078E+03  0.295857E+03
  0.335000E-02  0.500000E-04  0.137051E+03  0.184974E+01  0.241655E+24  0.112370E-01  0.308100E+03  0.302187E+03  0.295472E+03  0.102787E+04  0.383015E+00  0.481039E-05  0.100380E+09  0.121286E+32  0.000000E+00  0.000000E+00  0.000000E+00  0.000000E+00  0.100000E+01  0.308100E+03  0.302187E+03  0.295472E+03
  0.345000E-02  0.500000E-04  0.136144E+03 -0.183150E+01  0.243693E+24  0.113317E-01  0.307687E+03  0.302765E+03  0.296056E+03  0.103514E+04  0.380735E+00  0.476856E-05  0.101017E+09  0.123086E+32  0.000000E+00  0.000000E+00  0.000000E+00  0.000000E+00  0.100000E+01  0.307687E+03  0.302765E+03  0.296056E+03
  0.355000E-02  0.500000E-04  0.135936E+03 -0.158553E+01  0.245473E+24  0.114145E-01  0.306745E+03  0.299933E+03  0.295892E+03  0.103951E+04  0.380731E+00  0.473035E-05  0.101919E+09  0.125092E+32  0.000000E+00  0.000000E+00  0.000000E+00  0.000000E+00  0.100000E+01  0.306745E+03  0.299933E+03  0.295892E+03
  0.365000E-02  0.500000E-04  0.133481E+03  0.470565E+00  0.245841E+24  0.114316E-01  0.307658E+03  0.300721E+03  0.296153E+03  0.104417E+04  0.373275E+00  0.472678E-05  0.101809E+09  0.125144E+32  0.000000E+00  0.000000E+00  0.000000E+00  0.000000E+00  0.100000E+01  0.307658E+03  0.300721E+03  0.296153E+03
  0.375000E-02  0.500000E-04  0.132414E+03 -0.365151E+00  0.246487E+24  0.114616E-01  0.307881E+03  0.302233E+03  0.296106E+03  0.104767E+04  0.370156E+00  0.471525E-05  0.102284E+09  0.126058E+32  0.000000E+00  0.000000E+00  0.000000E+00  0.000000E+00  0.100000E+01  0.307881E+03  0.302233E+03  0.296106E+03
  0.385000E-02  0.500000E-04  0.131546E+03  0.205637E+01  0.246498E+24  0.114622E-01  0.307218E+03  0.301785E+03  0.296059E+03  0.104546E+04  0.368169E+00  0.471250E-05  0.102101E+09  0.125838E+32  0.000000E+00  0.000000E+00  0.000000E+00  0.000000E+00  0.100000E+01  0.307218E+03  0.301785E+03  0.296059E+03
  0.395000E-02  0.500000E-04  0.129841E+03  0.168754E+01  0.244232E+24  0.113568E-01  0.311692E+03  0.302209E+03  0.295767E+03  0.105094E+04  0.360768E+00  0.477344E-05  0.101566E+09  0.124028E+32  0.000000E+00  0.000000E+00  0.000000E+00  0.000000E+00  0.100000E+01  0.311692E+03  0.302209E+03  0.295767E+03
  0.405000E-02  0.500000E-04  0.128373E+03  0.478177E+00  0.245207E+24  0.114021E-01  0.312200E+03  0.306488E+03  0.295904E+03  0.105685E+04  0.356369E+00  0.475640E-05  0.102224E+09  0.125331E+32  0.000000E+00  0.000000E+00  0.000000E+00  0.000000E+00  0.100000E+01  0.312200E+03  0.306488E+03  0.295904E+03
  0.415000E-02  0.500000E-04  0.124859E+03  0.116073E+01  0.246973E+24  0.114842E-01  0.308241E+03  0.306545E+03  0.296058E+03  0.105097E+04  0.348847E+00  0.470735E-05  0.102422E+09  0.126477E+32  0.000000E+00  0.000000E+00  0.000000E+00  0.000000E+00  0.100000E+01  0.308241E+03  0.306545E+03  0.296058E+03
  0.425000E-02  0.500000E-04  0.122623E+03  0.140652E+01  0.243880E+24  0.113404E-01  0.311520E+03  0.307172E+03  0.295384E+03  0.104884E+04  0.340799E+00  0.477967E-05  0.101948E+09  0.124316E+32  0.000000E+00  0.000000E+00  0.000000E+00  0.000000E+00  0.100000E+01  0.311520E+03  0.307172E+03  0.295384E+03
  0.435000E-02  0.500000E-04  0.120322E+03 -0.778690E+00  0.248665E+24  0.115629E-01  0.307451E+03  0.303427E+03  0.295491E+03  0.105545E+04  0.336596E+00  0.467231E-05  0.103281E+09  0.128412E+32  0.000000E+00  0.000000E+00  0.000000E+00  0.000000E+00  0.100000E+01  0.307451E+03  0.303427E+03  0.295491E+03
  0.445000E-02  0.500000E-04  0.118114E+03  0.490654E-01  0.250930E+24  0.116683E-01  0.307811E+03  0.304922E+03  0.296239E+03  0.106632E+04  0.330218E+00  0.463149E-05  0.104132E+09  0.130650E+32  0.000000E+00  0.000000E+00  0.000000E+00  0.000000E+00  0.100000E+01  0.307811E+03  0.304922E+03  0.296239E+03
  0.455000E-02  0.500000E-04  0.118833E+03  0.177112E+01  0.250033E+24  0.116265E-01  0.306394E+03  0.300541E+03  0.296120E+03  0.105761E+04  0.333031E+00  0.464275E-05  0.103763E+09  0.129721E+32  0.000000E+00  0.000000E+00  0.000000E+00  0.000000E+00  0.100000E+01  0.306394E+03  0.300541E+03  0.296120E+03
  0.465000E-02  0.500000E-04  0.119656E+03  0.325812E+00  0.247854E+24  0.115252E-01  0.308077E+03  0.300429E+03  0.295639E+03  0.105415E+04  0.334386E+00  0.468999E-05  0.102563E+09  0.127103E+32  0.000000E+00  0.000000E+00  0.000000E+00  0.000000E+00  0.100000E+01  0.308077E+03  0.300429E+03  0.295639E+03
  0.475000E-02  0.500000E-04  0.118244E+03 -0.633173E+00  0.247411E+24  0.115046E-01  0.309136E+03  0.306540E+03  0.295830E+03  0.105589E+04  0.329876E+00  0.470242E-05  0.102788E+09  0.127154E+32  0.000000E+00  0.000000E+00  0.000000E+00  0.000000E+00  0.100000E+01  0.309136E+03  0.306540E+03  0.295830E+03
  0.485000E-02  0.500000E-04  0.116623E+03  0.235436E+01  0.247316E+24  0.115002E-01  0.310877E+03  0.305690E+03  0.296178E+03  0.106142E+04  0.324505E+00  0.471084E-05  0.102854E+09  0.127187E+32  0.000000E+00  0.000000E+00  0.000000E+00  0.000000E+00  0.100000E+01  0.310877E+03  0.305690E+03  0.296178E+03
  0.495000E-02  0.500000E-04  0.113020E+03  0.299009E+01  0.244463E+24  0.113675E-01  0.309017E+03  0.306917E+03  0.296486E+03  0.104290E+04  0.315470E+00  0.475868E-05  0.101831E+09  0.124469E+32  0.000000E+00  0.000000E+00  0.000000E+00  0.000000E+00  0.100000E+01  0.309017E+03  0.306917E+03  0.296486E+03
  0.505000E-02  0.500000E-04  0.110932E+03 -0.227180E+01  0.248284E+24  0.115452E-01  0.307864E+03  0.304462E+03  0.296389E+03  0.105525E+04  0.310177E+00  0.468106E-05  0.103117E+09  0.128012E+32  0.000000E+00  0.000000E+00  0.000000E+00  0.000000E+00  0.100000E+01  0.307864E+03  0.304462E+03  0.296389E+03
  0.515000E-02  0.500000E-04  0.110195E+03 -0.664894E+00  0.243502E+24  0.113228E-01  0.308259E+03  0.301391E+03  0.296521E+03  0.103625E+04  0.307860E+00  0.477452E-05  0.101099E+09  0.123089E+32  0.000000E+00  0.000000E+00  0.000000E+00  0.000000E+00  0.100000E+01  0.308259E+03  0.301391E+03  0.296521E+03
  0.525000E-02  0.500000E-04  0.110016E+03  0.176110E+01  0.244015E+24  0.113467E-01  0.307971E+03  0.302468E+03  0.295990E+03  0.103747E+04  0.307538E+00  0.476337E-05  0.101659E+09  0.124031E+32  0.000000E+00  0.000000E+00  0.000000E+00  0.000000E+00  0.100000E+01  0.307971E+03  0.302468E+03  0.295990E+03
  0.535000E-02  0.500000E-04  0.107999E+03 -0.596998E+00  0.248134E+24  0.115382E-01  0.305526E+03  0.300054E+03  0.296370E+03  0.104661E+04  0.303069E+00  0.467496E-05  0.102826E+09  0.127574E+32  0.000000E+00  0.000000E+00  0.000000E+00  0.000000E+00  0.100000E+01  0.305526E+03  0.300054E+03  0.296370E+03
  0.545000E-02  0.500000E-04  0.109501E+03 -0.152517E+01  0.245875E+24  0.114332E-01  0.308406E+03  0.305560E+03  0.296262E+03  0.104685E+04  0.305872E+00  0.472901E-05  0.102042E+09  0.125448E+32  0.000000E+00  0.000000E+00  0.000000E+00  0.000000E+00  0.100000E+01  0.308406E+03  0.305560E+03  0.296262E+03