TITLE=" Box                                                                     /                                                                         "
VARIABLES="X",        "Y",      "Vx   ",      "Vy   ",      "Nden ",      "Rho  ",      "Ttrn ",      "Trot ",      "Tvib ",      "Press",      "Ma   ",      "Lambd",      "Relac",      "Coll ",      "frac1",      "Ttrn1",      "Trot1",      "Tvib1",      "frac2",      "Ttrn2",      "Trot2",      "Tvib2"
ZONE T="DSMC,BG", I=  200, J=   50, F=POINT
 -0.395000E-02  0.500000E-04  0.802188E+03  0.254913E+02  0.128686E+25  0.598391E-01  0.100126E+03  0.840168E+02  0.233326E+03  0.177880E+04  0.393424E+01  0.682035E-06  0.384561E+09  0.247439E+33  0.000000E+00  0.000000E+00  0.000000E+00  0.000000E+00  0.100000E+01  0.100126E+03  0.840168E+02  0.233326E+03
 -0.385000E-02  0.500000E-04  0.742328E+03  0.672184E+02  0.139207E+25  0.647313E-01  0.143118E+03  0.115502E+03  0.245551E+03  0.275045E+04  0.305605E+01  0.689390E-06  0.478110E+09  0.332781E+33  0.000000E+00  0.000000E+00  0.000000E+00  0.000000E+00  0.100000E+01  0.143118E+03  0.115502E+03  0.245551E+03
 -0.375000E-02  0.500000E-04  0.712367E+03  0.888095E+02  0.138865E+25  0.645721E-01  0.160879E+03  0.130642E+03  0.250365E+03  0.308418E+04  0.277614E+01  0.711599E-06  0.530691E+09  0.368472E+33  0.000000E+00  0.000000E+00  0.000000E+00  0.000000E+00  0.100000E+01  0.160879E+03  0.130642E+03  0.250365E+03
 -0.365000E-02  0.500000E-04  0.675047E+03  0.735669E+02  0.112233E+25  0.521886E-01  0.185099E+03  0.148657E+03  0.257108E+03  0.286797E+04  0.244813E+01  0.911867E-06  0.463255E+09  0.259964E+33  0.000000E+00  0.000000E+00  0.000000E+00  0.000000E+00  0.100000E+01  0.185099E+03  0.148657E+03  0.257108E+03
 -0.355000E-02  0.500000E-04  0.625342E+03  0.530283E+02  0.872167E+24  0.405558E-01  0.214622E+03  0.171409E+03  0.264629E+03  0.258418E+04  0.210124E+01  0.121765E-05  0.358152E+09  0.156184E+33  0.000000E+00  0.000000E+00  0.000000E+00  0.000000E+00  0.100000E+01  0.214622E+03  0.171409E+03  0.264629E+03
 -0.345000E-02  0.500000E-04  0.578946E+03  0.401503E+02  0.717631E+24  0.333698E-01  0.236609E+03  0.190996E+03  0.270105E+03  0.234412E+04  0.185056E+01  0.151639E-05  0.294696E+09  0.105742E+33  0.000000E+00  0.000000E+00  0.000000E+00  0.000000E+00  0.100000E+01  0.236609E+03  0.190996E+03  0.270105E+03
 -0.335000E-02  0.500000E-04  0.540993E+03  0.299442E+02  0.613600E+24  0.285324E-01  0.252091E+03  0.207439E+03  0.274279E+03  0.213546E+04  0.167385E+01  0.180180E-05  0.252443E+09  0.774496E+32  0.000000E+00  0.000000E+00  0.000000E+00  0.000000E+00  0.100000E+01  0.252091E+03  0.207439E+03  0.274279E+03
 -0.325000E-02  0.500000E-04  0.505046E+03  0.223267E+02  0.543338E+24  0.252652E-01  0.263864E+03  0.221208E+03  0.277733E+03  0.197924E+04  0.152653E+01  0.205815E-05  0.221425E+09  0.601545E+32  0.000000E+00  0.000000E+00  0.000000E+00  0.000000E+00  0.100000E+01  0.263864E+03  0.221208E+03  0.277733E+03
 -0.315000E-02  0.500000E-04  0.471133E+03  0.185500E+02  0.501741E+24  0.233309E-01  0.273988E+03  0.232594E+03  0.280174E+03  0.189784E+04  0.139718E+01  0.224986E-05  0.203700E+09  0.511022E+32  0.000000E+00  0.000000E+00  0.000000E+00  0.000000E+00  0.100000E+01  0.273988E+03  0.232594E+03  0.280174E+03
 -0.305000E-02  0.500000E-04  0.436777E+03  0.173252E+02  0.472802E+24  0.219853E-01  0.284649E+03  0.243668E+03  0.282193E+03  0.185797E+04  0.127083E+01  0.241047E-05  0.192236E+09  0.454449E+32  0.000000E+00  0.000000E+00  0.000000E+00  0.000000E+00  0.100000E+01  0.284649E+03  0.243668E+03  0.282193E+03
 -0.295000E-02  0.500000E-04  0.414972E+03  0.119599E+02  0.440741E+24  0.204945E-01  0.289644E+03  0.251319E+03  0.283791E+03  0.176237E+04  0.119648E+01  0.259708E-05  0.179289E+09  0.395099E+32  0.000000E+00  0.000000E+00  0.000000E+00  0.000000E+00  0.100000E+01  0.289644E+03  0.251319E+03  0.283791E+03
 -0.285000E-02  0.500000E-04  0.395726E+03  0.118620E+02  0.418318E+24  0.194518E-01  0.293349E+03  0.257296E+03  0.285074E+03  0.169410E+04  0.113380E+01  0.274500E-05  0.170939E+09  0.357534E+32  0.000000E+00  0.000000E+00  0.000000E+00  0.000000E+00  0.100000E+01  0.293349E+03  0.257296E+03  0.285074E+03
 -0.275000E-02  0.500000E-04  0.374930E+03  0.964984E+01  0.400844E+24  0.186393E-01  0.297860E+03  0.264141E+03  0.285950E+03  0.164830E+04  0.106593E+01  0.287561E-05  0.163237E+09  0.327164E+32  0.000000E+00  0.000000E+00  0.000000E+00  0.000000E+00  0.100000E+01  0.297860E+03  0.264141E+03  0.285950E+03
 -0.265000E-02  0.500000E-04  0.355592E+03  0.793671E+01  0.387928E+24  0.180387E-01  0.298578E+03  0.268086E+03  0.287362E+03  0.159903E+04  0.100965E+01  0.297315E-05  0.157731E+09  0.305941E+32  0.000000E+00  0.000000E+00  0.000000E+00  0.000000E+00  0.100000E+01  0.298578E+03  0.268086E+03  0.287362E+03
 -0.255000E-02  0.500000E-04  0.340034E+03  0.771861E+01  0.377998E+24  0.175769E-01  0.299406E+03  0.268976E+03  0.287906E+03  0.156242E+04  0.964149E+00  0.305336E-05  0.154632E+09  0.292253E+32  0.000000E+00  0.000000E+00  0.000000E+00  0.000000E+00  0.100000E+01  0.299406E+03  0.268976E+03  0.287906E+03
 -0.245000E-02  0.500000E-04  0.333254E+03  0.460636E+01  0.358904E+24  0.166891E-01  0.299482E+03  0.270914E+03  0.288561E+03  0.148388E+04  0.944652E+00  0.321601E-05  0.146097E+09  0.262175E+32  0.000000E+00  0.000000E+00  0.000000E+00  0.000000E+00  0.100000E+01  0.299482E+03  0.270914E+03  0.288561E+03
 -0.235000E-02  0.500000E-04  0.318567E+03  0.720802E+01  0.352654E+24  0.163984E-01  0.303060E+03  0.276811E+03  0.288888E+03  0.147546E+04  0.897816E+00  0.328274E-05  0.144384E+09  0.254589E+32  0.000000E+00  0.000000E+00  0.000000E+00  0.000000E+00  0.100000E+01  0.303060E+03  0.276811E+03  0.288888E+03
 -0.225000E-02  0.500000E-04  0.304796E+03  0.561191E+01  0.347879E+24  0.161764E-01  0.304425E+03  0.279515E+03  0.289723E+03  0.146203E+04  0.857006E+00  0.333154E-05  0.141811E+09  0.246665E+32  0.000000E+00  0.000000E+00  0.000000E+00  0.000000E+00  0.100000E+01  0.304425E+03  0.279515E+03  0.289723E+03
 -0.215000E-02  0.500000E-04  0.293685E+03  0.384185E+01  0.341695E+24  0.158888E-01  0.303797E+03  0.279944E+03  0.289884E+03  0.143309E+04  0.826545E+00  0.339008E-05  0.140089E+09  0.239340E+32  0.000000E+00  0.000000E+00  0.000000E+00  0.000000E+00  0.100000E+01  0.303797E+03  0.279944E+03  0.289884E+03
 -0.205000E-02  0.500000E-04  0.281677E+03  0.590293E+01  0.338185E+24  0.157256E-01  0.304661E+03  0.283391E+03  0.290038E+03  0.142240E+04  0.791732E+00  0.342770E-05  0.138474E+09  0.234149E+32  0.000000E+00  0.000000E+00  0.000000E+00  0.000000E+00  0.100000E+01  0.304661E+03  0.283391E+03  0.290038E+03
 -0.195000E-02  0.500000E-04  0.273948E+03  0.463904E+01  0.328376E+24  0.152695E-01  0.306700E+03  0.285364E+03  0.290958E+03  0.139039E+04  0.767387E+00  0.353598E-05  0.134799E+09  0.221325E+32  0.000000E+00  0.000000E+00  0.000000E+00  0.000000E+00  0.100000E+01  0.306700E+03  0.285364E+03  0.290958E+03
 -0.185000E-02  0.500000E-04  0.272372E+03  0.222920E+01  0.316285E+24  0.147072E-01  0.305906E+03  0.285855E+03  0.291048E+03  0.133572E+04  0.763877E+00  0.366878E-05  0.129622E+09  0.204987E+32  0.000000E+00  0.000000E+00  0.000000E+00  0.000000E+00  0.100000E+01  0.305906E+03  0.285855E+03  0.291048E+03
 -0.175000E-02  0.500000E-04  0.266981E+03  0.571550E+00  0.314411E+24  0.146201E-01  0.305375E+03  0.287145E+03  0.291181E+03  0.132550E+04  0.749385E+00  0.368904E-05  0.129123E+09  0.202989E+32  0.000000E+00  0.000000E+00  0.000000E+00  0.000000E+00  0.100000E+01  0.305375E+03  0.287145E+03  0.291181E+03
 -0.165000E-02  0.500000E-04  0.255703E+03  0.439167E+01  0.315916E+24  0.146901E-01  0.307702E+03  0.288151E+03  0.291357E+03  0.134199E+04  0.715113E+00  0.367844E-05  0.129692E+09  0.204859E+32  0.000000E+00  0.000000E+00  0.000000E+00  0.000000E+00  0.100000E+01  0.307702E+03  0.288151E+03  0.291357E+03
 -0.155000E-02  0.500000E-04  0.249704E+03  0.414188E+01  0.310323E+24  0.144300E-01  0.307754E+03  0.290161E+03  0.291747E+03  0.131846E+04  0.698271E+00  0.374490E-05  0.127653E+09  0.198068E+32  0.000000E+00  0.000000E+00  0.000000E+00  0.000000E+00  0.100000E+01  0.307754E+03  0.290161E+03  0.291747E+03
 -0.145000E-02  0.500000E-04  0.246492E+03  0.287849E+01  0.303724E+24  0.141231E-01  0.307613E+03  0.290280E+03  0.291831E+03  0.128983E+04  0.689397E+00  0.382583E-05  0.125066E+09  0.189927E+32  0.000000E+00  0.000000E+00  0.000000E+00  0.000000E+00  0.100000E+01  0.307613E+03  0.290280E+03  0.291831E+03
 -0.135000E-02  0.500000E-04  0.245256E+03 -0.219855E+00  0.298510E+24  0.138807E-01  0.307408E+03  0.290285E+03  0.292075E+03  0.126684E+04  0.686124E+00  0.389200E-05  0.122095E+09  0.182232E+32  0.000000E+00  0.000000E+00  0.000000E+00  0.000000E+00  0.100000E+01  0.307408E+03  0.290285E+03  0.292075E+03
 -0.125000E-02  0.500000E-04  0.237789E+03  0.386416E+01  0.300733E+24  0.139841E-01  0.308078E+03  0.293112E+03  0.292302E+03  0.127906E+04  0.664599E+00  0.386534E-05  0.123930E+09  0.186349E+32  0.000000E+00  0.000000E+00  0.000000E+00  0.000000E+00  0.100000E+01  0.308078E+03  0.293112E+03  0.292302E+03
 -0.115000E-02  0.500000E-04  0.227740E+03  0.423090E+01  0.298405E+24  0.138758E-01  0.309240E+03  0.296182E+03  0.292972E+03  0.127395E+04  0.635341E+00  0.389916E-05  0.123267E+09  0.183917E+32  0.000000E+00  0.000000E+00  0.000000E+00  0.000000E+00  0.100000E+01  0.309240E+03  0.296182E+03  0.292972E+03
 -0.105000E-02  0.500000E-04  0.226248E+03  0.246147E+01  0.290216E+24  0.134950E-01  0.310714E+03  0.294785E+03  0.293182E+03  0.124489E+04  0.629608E+00  0.401395E-05  0.119717E+09  0.173719E+32  0.000000E+00  0.000000E+00  0.000000E+00  0.000000E+00  0.100000E+01  0.310714E+03  0.294785E+03  0.293182E+03
 -0.950000E-03  0.500000E-04  0.220782E+03  0.213220E+01  0.290124E+24  0.134907E-01  0.309174E+03  0.294665E+03  0.293200E+03  0.123833E+04  0.615918E+00  0.401024E-05  0.119661E+09  0.173583E+32  0.000000E+00  0.000000E+00  0.000000E+00  0.000000E+00  0.100000E+01  0.309174E+03  0.294665E+03  0.293200E+03
 -0.850000E-03  0.500000E-04  0.219580E+03 -0.683832E-01  0.283962E+24  0.132043E-01  0.309603E+03  0.296621E+03  0.293257E+03  0.121371E+04  0.612111E+00  0.409867E-05  0.117339E+09  0.166600E+32  0.000000E+00  0.000000E+00  0.000000E+00  0.000000E+00  0.100000E+01  0.309603E+03  0.296621E+03  0.293257E+03
 -0.750000E-03  0.500000E-04  0.218460E+03  0.122182E+01  0.281745E+24  0.131011E-01  0.310227E+03  0.296069E+03  0.293305E+03  0.120666E+04  0.608388E+00  0.413301E-05  0.116715E+09  0.164420E+32  0.000000E+00  0.000000E+00  0.000000E+00  0.000000E+00  0.100000E+01  0.310227E+03  0.296069E+03  0.293305E+03
 -0.650000E-03  0.500000E-04  0.219694E+03 -0.678163E+00  0.275828E+24  0.128260E-01  0.310645E+03  0.296891E+03  0.293459E+03  0.118291E+04  0.611405E+00  0.422310E-05  0.113529E+09  0.156573E+32  0.000000E+00  0.000000E+00  0.000000E+00  0.000000E+00  0.100000E+01  0.310645E+03  0.296891E+03  0.293459E+03
 -0.550000E-03  0.500000E-04  0.216249E+03  0.245195E+00  0.279175E+24  0.129817E-01  0.308636E+03  0.294380E+03  0.293563E+03  0.118952E+04  0.603770E+00  0.416569E-05  0.115435E+09  0.161133E+32  0.000000E+00  0.000000E+00  0.000000E+00  0.000000E+00  0.100000E+01  0.308636E+03  0.294380E+03  0.293563E+03
 -0.450000E-03  0.500000E-04  0.202864E+03  0.476099E+01  0.287095E+24  0.133499E-01  0.306857E+03  0.296531E+03  0.293404E+03  0.121621E+04  0.568195E+00  0.404494E-05  0.118007E+09  0.169395E+32  0.000000E+00  0.000000E+00  0.000000E+00  0.000000E+00  0.100000E+01  0.306857E+03  0.296531E+03  0.293404E+03
 -0.350000E-03  0.500000E-04  0.201656E+03  0.303162E+01  0.281537E+24  0.130915E-01  0.310901E+03  0.297910E+03  0.292908E+03  0.120839E+04  0.561033E+00  0.413831E-05  0.116122E+09  0.163463E+32  0.000000E+00  0.000000E+00  0.000000E+00  0.000000E+00  0.100000E+01  0.310901E+03  0.297910E+03  0.292908E+03
 -0.250000E-03  0.500000E-04  0.199071E+03  0.119522E+01  0.278217E+24  0.129371E-01  0.313426E+03  0.299992E+03  0.293267E+03  0.120383E+04  0.551557E+00  0.419617E-05  0.115429E+09  0.160571E+32  0.000000E+00  0.000000E+00  0.000000E+00  0.000000E+00  0.100000E+01  0.313426E+03  0.299992E+03  0.293267E+03
 -0.150000E-03  0.500000E-04  0.196243E+03  0.259470E+01  0.276588E+24  0.128613E-01  0.312379E+03  0.300280E+03  0.293917E+03  0.119279E+04  0.544670E+00  0.421735E-05  0.114868E+09  0.158855E+32  0.000000E+00  0.000000E+00  0.000000E+00  0.000000E+00  0.100000E+01  0.312379E+03  0.300280E+03  0.293917E+03
 -0.499999E-04  0.500000E-04  0.187238E+03  0.371235E+01  0.280272E+24  0.130326E-01  0.309833E+03  0.300015E+03  0.293933E+03  0.119883E+04  0.521863E+00  0.415342E-05  0.115364E+09  0.161667E+32  0.000000E+00  0.000000E+00  0.000000E+00  0.000000E+00  0.100000E+01  0.309833E+03  0.300015E+03  0.293933E+03
  0.499999E-04  0.500000E-04  0.188098E+03  0.150547E+01  0.269639E+24  0.125382E-01  0.309978E+03  0.298890E+03  0.294363E+03  0.115389E+04  0.524051E+00  0.431771E-05  0.111494E+09  0.150315E+32  0.000000E+00  0.000000E+00  0.000000E+00  0.000000E+00  0.100000E+01  0.309978E+03  0.298890E+03  0.294363E+03
  0.150000E-03  0.500000E-04  0.188929E+03 -0.106190E+01  0.266915E+24  0.124115E-01  0.309512E+03  0.299009E+03  0.294202E+03  0.114051E+04  0.526754E+00  0.436013E-05  0.110584E+09  0.147582E+32  0.000000E+00  0.000000E+00  0.000000E+00  0.000000E+00  0.100000E+01  0.309512E+03  0.299009E+03  0.294202E+03
  0.250000E-03  0.500000E-04  0.188790E+03 -0.871551E+00  0.267310E+24  0.124299E-01  0.309415E+03  0.298139E+03  0.294454E+03  0.114184E+04  0.526445E+00  0.435335E-05  0.110333E+09  0.147465E+32  0.000000E+00  0.000000E+00  0.000000E+00  0.000000E+00  0.100000E+01  0.309415E+03  0.298139E+03  0.294454E+03
  0.350000E-03  0.500000E-04  0.178799E+03  0.206113E+01  0.278355E+24  0.129435E-01  0.309181E+03  0.299716E+03  0.294191E+03  0.118812E+04  0.498802E+00  0.417982E-05  0.115274E+09  0.160435E+32  0.000000E+00  0.000000E+00  0.000000E+00  0.000000E+00  0.100000E+01  0.309181E+03  0.299716E+03  0.294191E+03
  0.450000E-03  0.500000E-04  0.176617E+03  0.172148E+01  0.272457E+24  0.126692E-01  0.308404E+03  0.298052E+03  0.294472E+03  0.116002E+04  0.493327E+00  0.426762E-05  0.113027E+09  0.153975E+32  0.000000E+00  0.000000E+00  0.000000E+00  0.000000E+00  0.100000E+01  0.308404E+03  0.298052E+03  0.294472E+03
  0.550000E-03  0.500000E-04  0.177399E+03  0.206694E+01  0.264964E+24  0.123208E-01  0.309883E+03  0.297152E+03  0.294238E+03  0.113353E+04  0.494337E+00  0.439355E-05  0.109646E+09  0.145261E+32  0.000000E+00  0.000000E+00  0.000000E+00  0.000000E+00  0.100000E+01  0.309883E+03  0.297152E+03  0.294238E+03
  0.650000E-03  0.500000E-04  0.173841E+03  0.512342E+00  0.263851E+24  0.122691E-01  0.308085E+03  0.297284E+03  0.294696E+03  0.112222E+04  0.485803E+00  0.440567E-05  0.108606E+09  0.143279E+32  0.000000E+00  0.000000E+00  0.000000E+00  0.000000E+00  0.100000E+01  0.308085E+03  0.297284E+03  0.294696E+03
  0.750000E-03  0.500000E-04  0.174172E+03  0.261189E+00  0.264554E+24  0.123018E-01  0.310124E+03  0.298697E+03  0.294503E+03  0.113266E+04  0.485124E+00  0.440121E-05  0.109291E+09  0.144567E+32  0.000000E+00  0.000000E+00  0.000000E+00  0.000000E+00  0.100000E+01  0.310124E+03  0.298697E+03  0.294503E+03
  0.850000E-03  0.500000E-04  0.172000E+03  0.117632E+01  0.260343E+24  0.121060E-01  0.310026E+03  0.299459E+03  0.294847E+03  0.111428E+04  0.479161E+00  0.447204E-05  0.107661E+09  0.140144E+32  0.000000E+00  0.000000E+00  0.000000E+00  0.000000E+00  0.100000E+01  0.310026E+03  0.299459E+03  0.294847E+03
  0.950000E-03  0.500000E-04  0.168984E+03  0.710246E+00  0.261398E+24  0.121550E-01  0.308277E+03  0.301431E+03  0.294810E+03  0.111248E+04  0.472084E+00  0.444770E-05  0.108270E+09  0.141508E+32  0.000000E+00  0.000000E+00  0.000000E+00  0.000000E+00  0.100000E+01  0.308277E+03  0.301431E+03  0.294810E+03
  0.105000E-02  0.500000E-04  0.169612E+03  0.120347E+01  0.260076E+24  0.120936E-01  0.309603E+03  0.302625E+03  0.294860E+03  0.111162E+04  0.472830E+00  0.447510E-05  0.107834E+09  0.140226E+32  0.000000E+00  0.000000E+00  0.000000E+00  0.000000E+00  0.100000E+01  0.309603E+03  0.302625E+03  0.294860E+03
  0.115000E-02  0.500000E-04  0.169346E+03  0.113341E+01  0.258719E+24  0.120305E-01  0.308553E+03  0.300009E+03  0.294796E+03  0.110207E+04  0.472891E+00  0.449476E-05  0.107013E+09  0.138432E+32  0.000000E+00  0.000000E+00  0.000000E+00  0.000000E+00  0.100000E+01  0.308553E+03  0.300009E+03  0.294796E+03
  0.125000E-02  0.500000E-04  0.161747E+03  0.306853E+01  0.262972E+24  0.122282E-01  0.305809E+03  0.298753E+03  0.295315E+03  0.111022E+04  0.453765E+00  0.441221E-05  0.109059E+09  0.143398E+32  0.000000E+00  0.000000E+00  0.000000E+00  0.000000E+00  0.100000E+01  0.305809E+03  0.298753E+03  0.295315E+03
  0.135000E-02  0.500000E-04  0.161299E+03 -0.417190E+00  0.260022E+24  0.120910E-01  0.306215E+03  0.297684E+03  0.295299E+03  0.109922E+04  0.452127E+00  0.446375E-05  0.107928E+09  0.140318E+32  0.000000E+00  0.000000E+00  0.000000E+00  0.000000E+00  0.100000E+01  0.306215E+03  0.297684E+03  0.295299E+03
  0.145000E-02  0.500000E-04  0.159242E+03  0.391488E+00  0.259703E+24  0.120762E-01  0.308703E+03  0.301233E+03  0.295163E+03  0.110679E+04  0.444558E+00  0.447828E-05  0.108175E+09  0.140467E+32  0.000000E+00  0.000000E+00  0.000000E+00  0.000000E+00  0.100000E+01  0.308703E+03  0.301233E+03  0.295163E+03
  0.155000E-02  0.500000E-04  0.161134E+03 -0.361061E+00  0.252745E+24  0.117526E-01  0.311129E+03  0.304329E+03  0.295126E+03  0.108560E+04  0.448082E+00  0.461059E-05  0.103982E+09  0.131405E+32  0.000000E+00  0.000000E+00  0.000000E+00  0.000000E+00  0.100000E+01  0.311129E+03  0.304329E+03  0.295126E+03
  0.165000E-02  0.500000E-04  0.157897E+03 -0.587092E+00  0.258896E+24  0.120387E-01  0.308337E+03  0.302881E+03  0.295124E+03  0.110205E+04  0.441069E+00  0.449091E-05  0.107054E+09  0.138579E+32  0.000000E+00  0.000000E+00  0.000000E+00  0.000000E+00  0.100000E+01  0.308337E+03  0.302881E+03  0.295124E+03
  0.175000E-02  0.500000E-04  0.159171E+03  0.143067E+01  0.255855E+24  0.118973E-01  0.309750E+03  0.301952E+03  0.295302E+03  0.109410E+04  0.443626E+00  0.454948E-05  0.105713E+09  0.135237E+32  0.000000E+00  0.000000E+00  0.000000E+00  0.000000E+00  0.100000E+01  0.309750E+03  0.301952E+03  0.295302E+03
  0.185000E-02  0.500000E-04  0.153262E+03  0.531932E+00  0.258285E+24  0.120103E-01  0.308164E+03  0.302572E+03  0.294955E+03  0.109883E+04  0.428240E+00  0.450089E-05  0.106485E+09  0.137517E+32  0.000000E+00  0.000000E+00  0.000000E+00  0.000000E+00  0.100000E+01  0.308164E+03  0.302572E+03  0.294955E+03
  0.195000E-02  0.500000E-04  0.151236E+03  0.761069E+00  0.256121E+24  0.119096E-01  0.310188E+03  0.303652E+03  0.294804E+03  0.109678E+04  0.421200E+00  0.454636E-05  0.106611E+09  0.136526E+32  0.000000E+00  0.000000E+00  0.000000E+00  0.000000E+00  0.100000E+01  0.310188E+03  0.303652E+03  0.294804E+03
  0.205000E-02  0.500000E-04  0.145119E+03  0.313790E+01  0.259379E+24  0.120611E-01  0.307080E+03  0.298766E+03  0.295467E+03  0.109960E+04  0.406295E+00  0.447796E-05  0.107161E+09  0.138977E+32  0.000000E+00  0.000000E+00  0.000000E+00  0.000000E+00  0.100000E+01  0.307080E+03  0.298766E+03  0.295467E+03
  0.215000E-02  0.500000E-04  0.146872E+03  0.476602E+00  0.252578E+24  0.117449E-01  0.308513E+03  0.299438E+03  0.296519E+03  0.107577E+04  0.410154E+00  0.460389E-05  0.104848E+09  0.132411E+32  0.000000E+00  0.000000E+00  0.000000E+00  0.000000E+00  0.100000E+01  0.308513E+03  0.299438E+03  0.296519E+03
  0.225000E-02  0.500000E-04  0.144910E+03 -0.218925E+00  0.252664E+24  0.117489E-01  0.310417E+03  0.300653E+03  0.295912E+03  0.108278E+04  0.403428E+00  0.460941E-05  0.104977E+09  0.132620E+32  0.000000E+00  0.000000E+00  0.000000E+00  0.000000E+00  0.100000E+01  0.310417E+03  0.300653E+03  0.295912E+03
  0.235000E-02  0.500000E-04  0.143271E+03  0.109133E+01  0.252386E+24  0.117360E-01  0.308446E+03  0.302692E+03  0.295941E+03  0.107472E+04  0.400149E+00  0.460714E-05  0.104043E+09  0.131296E+32  0.000000E+00  0.000000E+00  0.000000E+00  0.000000E+00  0.100000E+01  0.308446E+03  0.302691E+03  0.295941E+03
  0.245000E-02  0.500000E-04  0.142034E+03  0.696700E-01  0.248813E+24  0.115698E-01  0.309870E+03  0.301973E+03  0.295727E+03  0.106439E+04  0.395771E+00  0.467869E-05  0.103560E+09  0.128836E+32  0.000000E+00  0.000000E+00  0.000000E+00  0.000000E+00  0.100000E+01  0.309870E+03  0.301973E+03  0.295727E+03
  0.255000E-02  0.500000E-04  0.144015E+03  0.762420E+00  0.244263E+24  0.113583E-01  0.308837E+03  0.304467E+03  0.296019E+03  0.104145E+04  0.401968E+00  0.476186E-05  0.100954E+09  0.123297E+32  0.000000E+00  0.000000E+00  0.000000E+00  0.000000E+00  0.100000E+01  0.308837E+03  0.304467E+03  0.296019E+03
  0.265000E-02  0.500000E-04  0.140720E+03 -0.258078E+00  0.245473E+24  0.114145E-01  0.307804E+03  0.303082E+03  0.296350E+03  0.104311E+04  0.393424E+00  0.473442E-05  0.101643E+09  0.124753E+32  0.000000E+00  0.000000E+00  0.000000E+00  0.000000E+00  0.100000E+01  0.307804E+03  0.303082E+03  0.296350E+03
  0.275000E-02  0.500000E-04  0.139024E+03  0.253175E+00  0.247895E+24  0.115271E-01  0.305379E+03  0.298676E+03  0.295603E+03  0.104509E+04  0.390223E+00  0.467891E-05  0.102406E+09  0.126930E+32  0.000000E+00  0.000000E+00  0.000000E+00  0.000000E+00  0.100000E+01  0.305379E+03  0.298676E+03  0.295603E+03
  0.285000E-02  0.500000E-04  0.139886E+03 -0.136960E+00  0.249537E+24  0.116035E-01  0.308671E+03  0.302739E+03  0.295058E+03  0.106336E+04  0.390542E+00  0.466061E-05  0.103305E+09  0.128892E+32  0.000000E+00  0.000000E+00  0.000000E+00  0.000000E+00  0.100000E+01  0.308671E+03  0.302739E+03  0.295058E+03
  0.295000E-02  0.500000E-04  0.139806E+03  0.433073E+00  0.248257E+24  0.115440E-01  0.309823E+03  0.303994E+03  0.295549E+03  0.106185E+04  0.389593E+00  0.468899E-05  0.103204E+09  0.128106E+32  0.000000E+00  0.000000E+00  0.000000E+00  0.000000E+00  0.100000E+01  0.309823E+03  0.303994E+03  0.295549E+03
  0.305000E-02  0.500000E-04  0.136387E+03  0.192436E+01  0.248216E+24  0.115420E-01  0.306323E+03  0.299519E+03  0.295885E+03  0.104968E+04  0.382267E+00  0.467647E-05  0.103010E+09  0.127844E+32  0.000000E+00  0.000000E+00  0.000000E+00  0.000000E+00  0.100000E+01  0.306323E+03  0.299519E+03  0.295885E+03
  0.315000E-02  0.500000E-04  0.136902E+03  0.768225E+00  0.245092E+24  0.113968E-01  0.309021E+03  0.302028E+03  0.295570E+03  0.104560E+04  0.382000E+00  0.474648E-05  0.102039E+09  0.125045E+32  0.000000E+00  0.000000E+00  0.000000E+00  0.000000E+00  0.100000E+01  0.309021E+03  0.302028E+03  0.295570E+03
  0.325000E-02  0.500000E-04  0.134494E+03  0.900878E+00  0.247292E+24  0.114991E-01  0.307294E+03  0.300649E+03  0.295260E+03  0.104909E+04  0.376338E+00  0.469766E-05  0.102741E+09  0.127035E+32  0.000000E+00  0.000000E+00  0.000000E+00  0.000000E+00  0.100000E+01  0.307294E+03  0.300649E+03  0.295260E+03
  0.335000E-02  0.500000E-04  0.133469E+03  0.574684E+00  0.247280E+24  0.114985E-01  0.307813E+03  0.300318E+03  0.295203E+03  0.105081E+04  0.373148E+00  0.469987E-05  0.102718E+09  0.127001E+32  0.000000E+00  0.000000E+00  0.000000E+00  0.000000E+00  0.100000E+01  0.307813E+03  0.300318E+03  0.295203E+03
  0.345000E-02  0.500000E-04  0.133285E+03 -0.860092E-01  0.249936E+24  0.116220E-01  0.305571E+03  0.301846E+03  0.295219E+03  0.105436E+04  0.373994E+00  0.464143E-05  0.103218E+09  0.128990E+32  0.000000E+00  0.000000E+00  0.000000E+00  0.000000E+00  0.100000E+01  0.305571E+03  0.301846E+03  0.295219E+03
  0.355000E-02  0.500000E-04  0.131379E+03  0.214757E+01  0.245239E+24  0.114036E-01  0.305120E+03  0.298549E+03  0.295229E+03  0.103302E+04  0.368968E+00  0.472859E-05  0.100640E+09  0.123404E+32  0.000000E+00  0.000000E+00  0.000000E+00  0.000000E+00  0.100000E+01  0.305120E+03  0.298549E+03  0.295229E+03
  0.365000E-02  0.500000E-04  0.132114E+03 -0.212996E+01  0.244842E+24  0.113852E-01  0.307120E+03  0.299284E+03  0.295514E+03  0.103811E+04  0.369822E+00  0.474399E-05  0.101101E+09  0.123769E+32  0.000000E+00  0.000000E+00  0.000000E+00  0.000000E+00  0.100000E+01  0.307120E+03  0.299284E+03  0.295514E+03
  0.375000E-02  0.500000E-04  0.134434E+03 -0.828179E+00  0.243645E+24  0.113295E-01  0.309114E+03  0.302337E+03  0.295697E+03  0.103974E+04  0.375059E+00  0.477501E-05  0.101091E+09  0.123152E+32  0.000000E+00  0.000000E+00  0.000000E+00  0.000000E+00  0.100000E+01  0.309114E+03  0.302337E+03  0.295697E+03
  0.385000E-02  0.500000E-04  0.134978E+03 -0.161492E+01  0.243408E+24  0.113185E-01  0.310540E+03  0.303661E+03  0.295555E+03  0.104352E+04  0.375731E+00  0.478516E-05  0.101147E+09  0.123100E+32  0.000000E+00  0.000000E+00  0.000000E+00  0.000000E+00  0.100000E+01  0.310540E+03  0.303661E+03  0.295555E+03
  0.395000E-02  0.500000E-04  0.136222E+03 -0.106566E+00  0.244170E+24  0.113539E-01  0.312405E+03  0.303507E+03  0.295782E+03  0.105308E+04  0.378032E+00  0.477738E-05  0.101744E+09  0.124214E+32  0.000000E+00  0.000000E+00  0.000000E+00  0.000000E+00  0.100000E+01  0.312405E+03  0.303507E+03  0.295782E+03
  0.405000E-02  0.500000E-04  0.132363E+03  0.370767E+01  0.243197E+24  0.113087E-01  0.311964E+03  0.304836E+03  0.296180E+03  0.104740E+04  0.367727E+00  0.479480E-05  0.101205E+09  0.123064E+32  0.000000E+00  0.000000E+00  0.000000E+00  0.000000E+00  0.100000E+01  0.311964E+03  0.304836E+03  0.296180E+03
  0.415000E-02  0.500000E-04  0.128470E+03  0.682245E+00  0.240196E+24  0.111691E-01  0.309796E+03  0.302532E+03  0.296160E+03  0.102728E+04  0.358023E+00  0.484626E-05  0.996179E+08  0.119639E+32  0.000000E+00  0.000000E+00  0.000000E+00  0.000000E+00  0.100000E+01  0.309796E+03  0.302532E+03  0.296160E+03
  0.425000E-02  0.500000E-04  0.128430E+03 -0.421402E-01  0.244460E+24  0.113674E-01  0.308977E+03  0.305499E+03  0.295620E+03  0.104276E+04  0.358382E+00  0.475857E-05  0.101903E+09  0.124557E+32  0.000000E+00  0.000000E+00  0.000000E+00  0.000000E+00  0.100000E+01  0.308977E+03  0.305499E+03  0.295620E+03
  0.435000E-02  0.500000E-04  0.126980E+03  0.168732E+01  0.244871E+24  0.113865E-01  0.304446E+03  0.300275E+03  0.295963E+03  0.102919E+04  0.356994E+00  0.473308E-05  0.101138E+09  0.123829E+32  0.000000E+00  0.000000E+00  0.000000E+00  0.000000E+00  0.100000E+01  0.304446E+03  0.300275E+03  0.295963E+03
  0.445000E-02  0.500000E-04  0.125031E+03 -0.103159E+01  0.246150E+24  0.114460E-01  0.305862E+03  0.301248E+03  0.296057E+03  0.103938E+04  0.350679E+00  0.471394E-05  0.101847E+09  0.125348E+32  0.000000E+00  0.000000E+00  0.000000E+00  0.000000E+00  0.100000E+01  0.305862E+03  0.301248E+03  0.296057E+03
  0.455000E-02  0.500000E-04  0.126141E+03 -0.187941E+00  0.244487E+24  0.113687E-01  0.307958E+03  0.302979E+03  0.295663E+03  0.103943E+04  0.352576E+00  0.475411E-05  0.101684E+09  0.124302E+32  0.000000E+00  0.000000E+00  0.000000E+00  0.000000E+00  0.100000E+01  0.307958E+03  0.302979E+03  0.295663E+03
  0.465000E-02  0.500000E-04  0.125933E+03 -0.389237E+00  0.242862E+24  0.112931E-01  0.311028E+03  0.307839E+03  0.295997E+03  0.104282E+04  0.350254E+00  0.479780E-05  0.100994E+09  0.122639E+32  0.000000E+00  0.000000E+00  0.000000E+00  0.000000E+00  0.100000E+01  0.311028E+03  0.307839E+03  0.295997E+03
  0.475000E-02  0.500000E-04  0.124903E+03  0.215133E+00  0.241799E+24  0.112436E-01  0.309025E+03  0.303796E+03  0.295793E+03  0.103156E+04  0.348511E+00  0.481113E-05  0.100452E+09  0.121446E+32  0.000000E+00  0.000000E+00  0.000000E+00  0.000000E+00  0.100000E+01  0.309025E+03  0.303796E+03  0.295793E+03
  0.485000E-02  0.500000E-04  0.123018E+03 -0.157507E+00  0.242207E+24  0.112626E-01  0.307886E+03  0.303522E+03  0.296158E+03  0.102950E+04  0.343888E+00  0.479859E-05  0.100632E+09  0.121869E+32  0.000000E+00  0.000000E+00  0.000000E+00  0.000000E+00  0.100000E+01  0.307886E+03  0.303522E+03  0.296158E+03
  0.495000E-02  0.500000E-04  0.123457E+03  0.550812E+00  0.239632E+24  0.111429E-01  0.309959E+03  0.306439E+03  0.296526E+03  0.102541E+04  0.343961E+00  0.485830E-05  0.993931E+08  0.119089E+32  0.000000E+00  0.000000E+00  0.000000E+00  0.000000E+00  0.100000E+01  0.309959E+03  0.306439E+03  0.296526E+03
  0.505000E-02  0.500000E-04  0.121714E+03  0.266417E+00  0.243078E+24  0.113031E-01  0.310372E+03  0.306412E+03  0.296099E+03  0.104155E+04  0.338876E+00  0.479101E-05  0.100772E+09  0.122477E+32  0.000000E+00  0.000000E+00  0.000000E+00  0.000000E+00  0.100000E+01  0.310372E+03  0.306412E+03  0.296099E+03
  0.515000E-02  0.500000E-04  0.121770E+03 -0.488980E+00  0.240530E+24  0.111846E-01  0.308654E+03  0.303221E+03  0.296594E+03  0.102492E+04  0.339976E+00  0.483506E-05  0.993503E+08  0.119484E+32  0.000000E+00  0.000000E+00  0.000000E+00  0.000000E+00  0.100000E+01  0.308654E+03  0.303221E+03  0.296594E+03
  0.525000E-02  0.500000E-04  0.120040E+03 -0.102539E+00  0.243479E+24  0.113218E-01  0.307297E+03  0.300965E+03  0.296375E+03  0.103293E+04  0.335884E+00  0.477123E-05  0.101016E+09  0.122977E+32  0.000000E+00  0.000000E+00  0.000000E+00  0.000000E+00  0.100000E+01  0.307297E+03  0.300965E+03  0.296375E+03
  0.535000E-02  0.500000E-04  0.117969E+03  0.264729E+00  0.243584E+24  0.113267E-01  0.307168E+03  0.305211E+03  0.296265E+03  0.103294E+04  0.330157E+00  0.476868E-05  0.100978E+09  0.122983E+32  0.000000E+00  0.000000E+00  0.000000E+00  0.000000E+00  0.100000E+01  0.307168E+03  0.305211E+03  0.296265E+03
  0.545000E-02  0.500000E-04  0.116911E+03  0.204615E+01  0.242962E+24  0.112977E-01  0.306954E+03  0.302867E+03  0.295517E+03  0.102958E+04  0.327361E+00  0.478005E-05  0.100447E+09  0.122025E+32  0.000000E+00  0.000000E+00  0.000000E+00  0.000000E+00  0.100000E+01  0.306954E+03  0.302867E+03  0.295517E+03